 Q-Chem 5.4 (devel), Q-Chem, Inc., Pleasanton, CA (2021)
 Q-Chem 5.4.1 for Intel X86 EM64T Linux

User input:
--------------------------------------------------------------
$comment
	Ethylene CAP-EOM-CCSD
	Basis: C/7H: jun-TZ+4p1d, H: TZ
$end

$molecule
-1 1
C       0.6645000000     0.0000000000    -0.1470587929
C      -0.6645000000     0.0000000044    -0.1470587929
H       1.1590799243     0.9623488970    -0.1470589766
H      -1.1590799243     0.9623488970    -0.1470589766
H       1.1590799243    -0.9623488970    -0.1470589766
H      -1.1590799243    -0.9623488970    -0.1470589766
H       0.0000000000     0.0000000000     2.8529412071
$end

$rem
	method eom-mp2
	basis gen
        EE_STATES [0,0,10,0]
	complex_ccman 1
	xc_grid 000250000974
	scf_convergence 8
	thresh 14
	mem_total 95000
	threads 12
$end

$complex_ccman
	cap_type 2
	proj_cap 3
	cap_eta 300
	cap_x 3500
$end

$basis
C     1
S    8   1.00
   8236.0000000              0.0005310
   1235.0000000              0.0041080
    280.8000000              0.0210870
     79.2700000              0.0818530
     25.5900000              0.2348170
      8.9970000              0.4344010
      3.3190000              0.3461290
      0.3643000             -0.0089830
S    1   1.00
      0.9059000              1.0000000
S    8   1.00
   8236.0000000             -0.0001130
   1235.0000000             -0.0008780
    280.8000000             -0.0045400
     79.2700000             -0.0181330
     25.5900000             -0.0557600
      8.9970000             -0.1268950
      3.3190000             -0.1703520
      0.3643000              0.5986840
S    1   1.00
      0.1285000              1.0000000
S    1   1.00
      0.0440200              1.0000000
P    3   1.00
     18.7100000              0.0140310
      4.1330000              0.0868660
      1.2000000              0.2902160
P    1   1.00
      0.3827000              1.0000000
P    1   1.00
      0.1209000              1.0000000
P    1   1.00
      0.0356900              1.0000000
P    1   1.0
      0.0237933 1.0
P    1   1.0
      0.0158622 1.0
P    1   1.0
      0.0105748 1.0
P    1   1.0
      0.0070498 1.0
D    1   1.00
      1.0970000              1.0000000
D    1   1.00
      0.3180000              1.0000000
D    1   1.00
      0.1000000              1.0000000
D    1   1.00
      0.0500000 1.0
F    1   1.00
      0.7610000              1.0000000
****
C     2
S    8   1.00
   8236.0000000              0.0005310
   1235.0000000              0.0041080
    280.8000000              0.0210870
     79.2700000              0.0818530
     25.5900000              0.2348170
      8.9970000              0.4344010
      3.3190000              0.3461290
      0.3643000             -0.0089830
S    1   1.00
      0.9059000              1.0000000
S    8   1.00
   8236.0000000             -0.0001130
   1235.0000000             -0.0008780
    280.8000000             -0.0045400
     79.2700000             -0.0181330
     25.5900000             -0.0557600
      8.9970000             -0.1268950
      3.3190000             -0.1703520
      0.3643000              0.5986840
S    1   1.00
      0.1285000              1.0000000
S    1   1.00
      0.0440200              1.0000000
P    3   1.00
     18.7100000              0.0140310
      4.1330000              0.0868660
      1.2000000              0.2902160
P    1   1.00
      0.3827000              1.0000000
P    1   1.00
      0.1209000              1.0000000
P    1   1.00
      0.0356900              1.0000000
P    1   1.0
      0.0237933 1.0
P    1   1.0
      0.0158622 1.0
P    1   1.0
      0.0105748 1.0
P    1   1.0
      0.0070498 1.0
D    1   1.00
      1.0970000              1.0000000
D    1   1.00
      0.3180000              1.0000000
D    1   1.00
      0.1000000              1.0000000
D    1   1.00
      0.0500000 1.0
F    1   1.00
      0.7610000              1.0000000
****
H     3
cc-pVTZ
****
H     4
cc-pVTZ
****
H     5
cc-pVTZ
****
H     6
cc-pVTZ
****
H     7
aug-cc-pVTZ
****
$end
--------------------------------------------------------------

             Standard Nuclear Orientation (Angstroms)
    I     Atom           X                Y                Z
 ----------------------------------------------------------------
    1      C       0.6645000000    -0.0000000001    -0.1764705450
    2      C      -0.6645000000     0.0000000010    -0.1764705450
    3      H       1.1590799219     0.9623488982    -0.1764707297
    4      H      -1.1590799219     0.9623488982    -0.1764707297
    5      H       1.1590799219    -0.9623488982    -0.1764707297
    6      H      -1.1590799219    -0.9623489016    -0.1764707278
    7      H       0.0000000000     0.0000000012     2.8235294550
 ----------------------------------------------------------------

   12     -78.5316871762      4.74e-09  Convergence criterion met
 Total energy in the final basis set =      -78.5316871762
 EOMEE transition 1/B1
 Total energy = -78.88581783 a.u.  Excitation energy = 0.3973 eV.
 EOMEE transition 2/B1
 Total energy = -78.87939313 a.u.  Excitation energy = 0.5721 eV.
 EOMEE transition 3/B1
 Total energy = -78.86564420 a.u.  Excitation energy = 0.9462 eV.
 EOMEE transition 4/B1
 Total energy = -78.85395154 a.u.  Excitation energy = 1.2644 eV.
 EOMEE transition 5/B1
 Total energy = -78.83039631 a.u.  Excitation energy = 1.9054 eV.
 EOMEE transition 6/B1
 Total energy = -78.82117492 a.u.  Excitation energy = 2.1563 eV.
 EOMEE transition 7/B1
 Total energy = -78.79083747 a.u.  Excitation energy = 2.9818 eV.
 EOMEE transition 8/B1
 Total energy = -78.77273867 a.u.  Excitation energy = 3.4743 eV.
 EOMEE transition 9/B1
 Total energy = -78.73309931 a.u.  Excitation energy = 4.5530 eV.
 EOMEE transition 10/B1
 Total energy = -78.72500214 a.u.  Excitation energy = 4.7733 eV.
 Excited state properties for  EOMEE-CCSD transition 1/B1
 Excited state properties for  EOMEE-CCSD transition 2/B1
 Excited state properties for  EOMEE-CCSD transition 3/B1
 Excited state properties for  EOMEE-CCSD transition 4/B1
 Excited state properties for  EOMEE-CCSD transition 5/B1
 Excited state properties for  EOMEE-CCSD transition 6/B1
 Excited state properties for  EOMEE-CCSD transition 7/B1
 Excited state properties for  EOMEE-CCSD transition 8/B1
 Excited state properties for  EOMEE-CCSD transition 9/B1
 Excited state properties for  EOMEE-CCSD transition 10/B1

             Orbital Energies (a.u.) and Symmetries
 --------------------------------------------------------------

 Alpha MOs, Restricted
 -- Occupied --
-11.078 -11.076  -0.887  -0.632  -0.511  -0.419  -0.368  -0.225
  1 A1    1 B1    2 A1    2 B1    1 B2    3 A1    1 A2    4 A1
 -0.035
  5 A1

 Beta MOs, Restricted
 -- Occupied --
-11.078 -11.076  -0.887  -0.632  -0.511  -0.419  -0.368  -0.225
  1 A1    1 B1    2 A1    2 B1    1 B2    3 A1    1 A2    4 A1
 -0.035
  5 A1

          Ground-State Mulliken Net Atomic Charges

     Atom                 Charge (a.u.)
  ----------------------------------------
      1 C                    -0.471832
      2 C                    -0.471820
      3 H                     0.116194
      4 H                     0.116193
      5 H                     0.116194
      6 H                     0.116192
      7 H                    -0.521121
  ----------------------------------------
  Sum of atomic charges =    -1.000000

                    Cartesian Multipole Moments
 -----------------------------------------------------------------
    Charge (ESU x 10^10)
                -4.8032
    Dipole Moment (Debye)
         X       0.0000      Y      -0.0000      Z     -12.1495
       Tot      12.1495
    Quadrupole Moments (Debye-Ang)
        XX     -26.2026     XY       0.0000     YY     -22.5494
        XZ      -0.0000     YZ       0.0000     ZZ     -63.6172

 Total job time:  462.54s(wall), 3285.71s(cpu)
        *  Thank you very much for using Q-Chem.  Have a nice day.  *
