 Q-Chem 5.4 (devel), Q-Chem, Inc., Pleasanton, CA (2021)
 Q-Chem 5.4.1 for Intel X86 EM64T Linux

User input:
--------------------------------------------------------------
$comment
	H_Ethylene CAP-ADC(2) optx
	Basis: C: jun-TZ+4p1d, H: TZ
$end

$molecule
-1 1
C         0.0000000000    0.0000000000    0.8417902907
C         0.0000000000    0.0000000000   -0.4872097093
H         0.9623488518    0.0000000000    1.3363703127
H         0.9623489048    0.0000000000   -0.9817896873
H        -0.9623488518    0.0000000000    1.3363703127
H        -0.9623489048    0.0000000000   -0.9817896873
H         0.0000000000    0.0000000000   -2.8366446508
$end

$rem
	basis gen
	method adc(2)
        EE_STATES [0,0,0,10]
	scf_convergence 8
	thresh 14
	adc_cap 1
	cap_type 2
	cap_x 1500
	cap_x_end 5000
	cap_x_step 500
	xc_grid 000250000974
	adc_print 3
	adc_davidson_conv 5
	adc_nguess_singles 100
	adc_nguess_doubles 50
	adc_davidson_maxsubspace 400
	adc_davidson_maxiter 40
	adc_davidson_thresh 14
	mem_total 95000
	threads 12
$end

$basis
C     1
S    8   1.00
   8236.0000000              0.0005310
   1235.0000000              0.0041080
    280.8000000              0.0210870
     79.2700000              0.0818530
     25.5900000              0.2348170
      8.9970000              0.4344010
      3.3190000              0.3461290
      0.3643000             -0.0089830
S    1   1.00
      0.9059000              1.0000000
S    8   1.00
   8236.0000000             -0.0001130
   1235.0000000             -0.0008780
    280.8000000             -0.0045400
     79.2700000             -0.0181330
     25.5900000             -0.0557600
      8.9970000             -0.1268950
      3.3190000             -0.1703520
      0.3643000              0.5986840
S    1   1.00
      0.1285000              1.0000000
S    1   1.00
      0.0440200              1.0000000
P    3   1.00
     18.7100000              0.0140310
      4.1330000              0.0868660
      1.2000000              0.2902160
P    1   1.00
      0.3827000              1.0000000
P    1   1.00
      0.1209000              1.0000000
P    1   1.00
      0.0356900              1.0000000
P    1   1.0
      0.0237933 1.0
P    1   1.0
      0.0158622 1.0
P    1   1.0
      0.0105748 1.0
P    1   1.0
      0.0070498 1.0
D    1   1.00
      1.0970000              1.0000000
D    1   1.00
      0.3180000              1.0000000
D    1   1.00
      0.1000000              1.0000000
D    1   1.00
      0.0500000 1.0
F    1   1.00
      0.7610000              1.0000000
****
C     2
S    8   1.00
   8236.0000000              0.0005310
   1235.0000000              0.0041080
    280.8000000              0.0210870
     79.2700000              0.0818530
     25.5900000              0.2348170
      8.9970000              0.4344010
      3.3190000              0.3461290
      0.3643000             -0.0089830
S    1   1.00
      0.9059000              1.0000000
S    8   1.00
   8236.0000000             -0.0001130
   1235.0000000             -0.0008780
    280.8000000             -0.0045400
     79.2700000             -0.0181330
     25.5900000             -0.0557600
      8.9970000             -0.1268950
      3.3190000             -0.1703520
      0.3643000              0.5986840
S    1   1.00
      0.1285000              1.0000000
S    1   1.00
      0.0440200              1.0000000
P    3   1.00
     18.7100000              0.0140310
      4.1330000              0.0868660
      1.2000000              0.2902160
P    1   1.00
      0.3827000              1.0000000
P    1   1.00
      0.1209000              1.0000000
P    1   1.00
      0.0356900              1.0000000
P    1   1.0
      0.0237933 1.0
P    1   1.0
      0.0158622 1.0
P    1   1.0
      0.0105748 1.0
P    1   1.0
      0.0070498 1.0
D    1   1.00
      1.0970000              1.0000000
D    1   1.00
      0.3180000              1.0000000
D    1   1.00
      0.1000000              1.0000000
D    1   1.00
      0.0500000 1.0
F    1   1.00
      0.7610000              1.0000000
****
H     3
cc-pVTZ
****
H     4
cc-pVTZ
****
H     5
cc-pVTZ
****
H     6
cc-pVTZ
****
H     7
aug-cc-pVTZ
****
$end
--------------------------------------------------------------

             Standard Nuclear Orientation (Angstroms)
    I     Atom           X                Y                Z
 ----------------------------------------------------------------
    1      C       0.0000000000     0.0000000000     0.8417902855
    2      C       0.0000000000     0.0000000000    -0.4872097145
    3      H       0.9623488518     0.0000000000     1.3363703075
    4      H       0.9623489048     0.0000000000    -0.9817896925
    5      H      -0.9623488518     0.0000000000     1.3363703075
    6      H      -0.9623489048     0.0000000000    -0.9817896925
    7      H       0.0000000000     0.0000000000    -2.8366446560
 ----------------------------------------------------------------

   12     -78.5270871042      9.09E-09 Convergence criterion met
 Total energy in the final basis set = -78.52708710
  Excited state 1 (singlet, B2)                                    [converged]
  Term symbol:  1 (1) B2                                    R^2 =  2.15082e-09
  Excitation energy:                                               0.813524 eV
  Excited state 2 (singlet, B2)                                    [converged]
  Term symbol:  2 (1) B2                                    R^2 =  1.43155e-09
  Excitation energy:                                               0.945126 eV
  Excited state 3 (singlet, B2)                                    [converged]
  Term symbol:  3 (1) B2                                    R^2 =  5.92259e-09
  Excitation energy:                                               1.474241 eV
  Excited state 4 (singlet, B2)                                    [converged]
  Term symbol:  4 (1) B2                                    R^2 =  5.49983e-09
  Excitation energy:                                               1.683783 eV
  Excited state 5 (singlet, B2)                                    [converged]
  Term symbol:  5 (1) B2                                    R^2 =  3.96949e-08
  Excitation energy:                                               2.565198 eV
  Excited state 6 (singlet, B2)                                    [converged]
  Term symbol:  6 (1) B2                                    R^2 =  2.27753e-08
  Excitation energy:                                               2.629583 eV
  Excited state 7 (singlet, B2)                                    [converged]
  Term symbol:  7 (1) B2                                    R^2 =  9.73717e-08
  Excitation energy:                                               3.359213 eV
  Excited state 8 (singlet, B2)                                    [converged]
  Term symbol:  8 (1) B2                                    R^2 =  7.62147e-07
  Excitation energy:                                               4.597358 eV
  Excited state 9 (singlet, B2)                                    [converged]
  Term symbol:  9 (1) B2                                    R^2 =  5.02946e-06
  Excitation energy:                                               5.242568 eV
  Excited state 10 (singlet, B2)                                    [converged]
  Term symbol:  10 (1) B2                                   R^2 =  1.52464e-07
  Excitation energy:                                               5.423415 eV
  Excitation energy:                                               0.131602 eV
  Excitation energy:                                               0.660717 eV
  Excitation energy:                                               0.529115 eV
  Excitation energy:                                               0.870259 eV
  Excitation energy:                                               0.738657 eV
  Excitation energy:                                               0.209542 eV
  Excitation energy:                                               1.751675 eV
  Excitation energy:                                               1.620072 eV
  Excitation energy:                                               1.090957 eV
  Excitation energy:                                               0.881415 eV
  Excitation energy:                                               1.816060 eV
  Excitation energy:                                               1.684457 eV
  Excitation energy:                                               1.155343 eV
  Excitation energy:                                               0.945800 eV
  Excitation energy:                                               0.064385 eV
  Excitation energy:                                               2.545689 eV
  Excitation energy:                                               2.414087 eV
  Excitation energy:                                               1.884972 eV
  Excitation energy:                                               1.675430 eV
  Excitation energy:                                               0.794015 eV
  Excitation energy:                                               0.729630 eV
  Excitation energy:                                               3.783834 eV
  Excitation energy:                                               3.652232 eV
  Excitation energy:                                               3.123117 eV
  Excitation energy:                                               2.913575 eV
  Excitation energy:                                               2.032159 eV
  Excitation energy:                                               1.967774 eV
  Excitation energy:                                               1.238145 eV
  Excitation energy:                                               4.429044 eV
  Excitation energy:                                               4.297442 eV
  Excitation energy:                                               3.768327 eV
  Excitation energy:                                               3.558785 eV
  Excitation energy:                                               2.677370 eV
  Excitation energy:                                               2.612985 eV
  Excitation energy:                                               1.883355 eV
  Excitation energy:                                               0.645210 eV
  Excitation energy:                                               4.609891 eV
  Excitation energy:                                               4.478289 eV
  Excitation energy:                                               3.949174 eV
  Excitation energy:                                               3.739632 eV
  Excitation energy:                                               2.858217 eV
  Excitation energy:                                               2.793832 eV
  Excitation energy:                                               2.064202 eV
  Excitation energy:                                               0.826057 eV
  Excitation energy:                                               0.180847 eV

             Orbital Energies (a.u.) and Symmetries
 --------------------------------------------------------------

 Alpha MOs, Restricted
 -- Occupied --
-11.070 -11.065  -0.883  -0.623  -0.505  -0.410  -0.357  -0.223
  1 A1    2 A1    3 A1    4 A1    1 B1    5 A1    2 B1    1 B2
 -0.040
  6 A1

 Beta MOs, Restricted
 -- Occupied --
-11.070 -11.065  -0.883  -0.623  -0.505  -0.410  -0.357  -0.223
  1 A1    2 A1    3 A1    4 A1    1 B1    5 A1    2 B1    1 B2
 -0.040
  6 A1

          Ground-State Mulliken Net Atomic Charges

     Atom                 Charge (a.u.)
  ----------------------------------------
      1 C                    -1.196491
      2 C                     0.201091
      3 H                     0.135325
      4 H                     0.124176
      5 H                     0.135325
      6 H                     0.124176
      7 H                    -0.523603
  ----------------------------------------
  Sum of atomic charges =    -1.000000

                    Cartesian Multipole Moments
 -----------------------------------------------------------------
    Charge (ESU x 10^10)
                -4.8032
    Dipole Moment (Debye)
         X       0.0000      Y       0.0000      Z      12.9717
       Tot      12.9717
    Quadrupole Moments (Debye-Ang)
        XX     -20.4346     XY      -0.0000     YY     -24.7443
        XZ       0.0000     YZ      -0.0000     ZZ     -66.0752

 Total job time:  326.43s(wall), 1610.12s(cpu)
        *  Thank you very much for using Q-Chem.  Have a nice day.  *
