 Q-Chem 5.4 (devel), Q-Chem, Inc., Pleasanton, CA (2021)
 Q-Chem 5.4.1 for Intel X86 EM64T Linux

User input:
--------------------------------------------------------------
$comment
	H_Ethylene CAP-ADC(2)-x
	Basis: C: aDZ+4p1d, H: DZ
$end

$molecule
-1 1
C         0.0000000000    0.0000000000    0.8417902907
C         0.0000000000    0.0000000000   -0.4872097093
H         0.9623488518    0.0000000000    1.3363703127
H         0.9623489048    0.0000000000   -0.9817896873
H        -0.9623488518    0.0000000000    1.3363703127
H        -0.9623489048    0.0000000000   -0.9817896873
H         0.0000000000    0.0000000000   -10.4872097093
$end

$rem
	basis gen
	method adc(2)-x
        EE_STATES [0,0,0,30]
	scf_convergence 8
	thresh 14
	adc_cap 1
	cap_type 2
	cap_x 1500
	cap_x_end 5000
	cap_x_step 500
	xc_grid 000250000974
	adc_print 3
	adc_davidson_conv 5
	adc_nguess_singles 100
	adc_nguess_doubles 50
	adc_davidson_maxsubspace 400
	adc_davidson_maxiter 40
	adc_davidson_thresh 14
	mem_total 95000
	threads 12
$end

$basis
C     1
S   9   1.00
      6.665000D+03           6.920000D-04
      1.000000D+03           5.329000D-03
      2.280000D+02           2.707700D-02
      6.471000D+01           1.017180D-01
      2.106000D+01           2.747400D-01
      7.495000D+00           4.485640D-01
      2.797000D+00           2.850740D-01
      5.215000D-01           1.520400D-02
      1.596000D-01          -3.191000D-03
S   9   1.00
      6.665000D+03          -1.460000D-04
      1.000000D+03          -1.154000D-03
      2.280000D+02          -5.725000D-03
      6.471000D+01          -2.331200D-02
      2.106000D+01          -6.395500D-02
      7.495000D+00          -1.499810D-01
      2.797000D+00          -1.272620D-01
      5.215000D-01           5.445290D-01
      1.596000D-01           5.804960D-01
S   1   1.00
      1.596000D-01           1.000000D+00
S   1   1.00
      0.0469000              1.0000000
P   4   1.00
      9.439000D+00           3.810900D-02
      2.002000D+00           2.094800D-01
      5.456000D-01           5.085570D-01
      1.517000D-01           4.688420D-01
P   1   1.00
      1.517000D-01           1.000000D+00
P   1   1.00
      0.0404100              1.0000000
P    1  1.00
     0.0269400   1.0
P    1  1.00
     0.0179600   1.0
P    1  1.00
     0.0119733   1.0
P    1  1.00
     0.0079822   1.0
D   1   1.00
      5.500000D-01           1.0000000
D   1   1.00
      0.1510000              1.0000000
D    1  1.00
     0.0755000   1.0
****
C     2
S   9   1.00
      6.665000D+03           6.920000D-04
      1.000000D+03           5.329000D-03
      2.280000D+02           2.707700D-02
      6.471000D+01           1.017180D-01
      2.106000D+01           2.747400D-01
      7.495000D+00           4.485640D-01
      2.797000D+00           2.850740D-01
      5.215000D-01           1.520400D-02
      1.596000D-01          -3.191000D-03
S   9   1.00
      6.665000D+03          -1.460000D-04
      1.000000D+03          -1.154000D-03
      2.280000D+02          -5.725000D-03
      6.471000D+01          -2.331200D-02
      2.106000D+01          -6.395500D-02
      7.495000D+00          -1.499810D-01
      2.797000D+00          -1.272620D-01
      5.215000D-01           5.445290D-01
      1.596000D-01           5.804960D-01
S   1   1.00
      1.596000D-01           1.000000D+00
S   1   1.00
      0.0469000              1.0000000
P   4   1.00
      9.439000D+00           3.810900D-02
      2.002000D+00           2.094800D-01
      5.456000D-01           5.085570D-01
      1.517000D-01           4.688420D-01
P   1   1.00
      1.517000D-01           1.000000D+00
P   1   1.00
      0.0404100              1.0000000
P    1  1.00
     0.0269400   1.0
P    1  1.00
     0.0179600   1.0
P    1  1.00
     0.0119733   1.0
P    1  1.00
     0.0079822   1.0
D   1   1.00
      5.500000D-01           1.0000000
D   1   1.00
      0.1510000              1.0000000
D    1  1.00
     0.0755000   1.0
****
H     3
S   4   1.00
      1.301000D+01           1.968500D-02
      1.962000D+00           1.379770D-01
      4.446000D-01           4.781480D-01
      1.220000D-01           5.012400D-01
S   1   1.00
      1.220000D-01           1.000000D+00
P   1   1.00
      7.270000D-01           1.0000000
****
H     4
S   4   1.00
      1.301000D+01           1.968500D-02
      1.962000D+00           1.379770D-01
      4.446000D-01           4.781480D-01
      1.220000D-01           5.012400D-01
S   1   1.00
      1.220000D-01           1.000000D+00
P   1   1.00
      7.270000D-01           1.0000000
****
H     5
S   4   1.00
      1.301000D+01           1.968500D-02
      1.962000D+00           1.379770D-01
      4.446000D-01           4.781480D-01
      1.220000D-01           5.012400D-01
S   1   1.00
      1.220000D-01           1.000000D+00
P   1   1.00
      7.270000D-01           1.0000000
****
H     6
S   4   1.00
      1.301000D+01           1.968500D-02
      1.962000D+00           1.379770D-01
      4.446000D-01           4.781480D-01
      1.220000D-01           5.012400D-01
S   1   1.00
      1.220000D-01           1.000000D+00
P   1   1.00
      7.270000D-01           1.0000000
****
H     7
S    4   1.00
      1.301000D+01           1.968500D-02
      1.962000D+00           1.379770D-01
      4.446000D-01           4.781480D-01
      1.220000D-01           5.012400D-01
S    1   1.00
      1.220000D-01           1.000000D+00
S    1   1.00
      0.0297400              1.0000000
P    1   1.00
      7.270000D-01           1.0000000
P    1   1.00
      0.1410000              1.0000000
****
$end
--------------------------------------------------------------

             Standard Nuclear Orientation (Angstroms)
    I     Atom           X                Y                Z
 ----------------------------------------------------------------
    1      C       0.0000000000     0.0000000000     1.2918235242
    2      C       0.0000000000     0.0000000000    -0.0371764758
    3      H       0.9623488518     0.0000000000     1.7864035462
    4      H       0.9623489048     0.0000000000    -0.5317564538
    5      H      -0.9623488518     0.0000000000     1.7864035462
    6      H      -0.9623489048     0.0000000000    -0.5317564538
    7      H       0.0000000000     0.0000000000   -10.0371764758
 ----------------------------------------------------------------

   12     -78.5023864968      8.09E-09 Convergence criterion met
 Total energy in the final basis set = -78.50238650
  Term symbol:  1 (1) B2                                    R^2 =  2.04205e-15
  Excitation energy:                                              -0.093630 eV
  Term symbol:  2 (1) B2                                    R^2 =  2.78956e-15
  Excitation energy:                                               0.061927 eV
  Term symbol:  3 (1) B2                                    R^2 =  2.64451e-15
  Excitation energy:                                               0.622727 eV
  Term symbol:  4 (1) B2                                    R^2 =  3.23079e-15
  Excitation energy:                                               0.827079 eV
  Term symbol:  5 (1) B2                                    R^2 =  3.05979e-15
  Excitation energy:                                               1.651453 eV
  Term symbol:  6 (1) B2                                    R^2 =  3.08939e-15
  Excitation energy:                                               1.903061 eV
  Term symbol:  7 (1) B2                                    R^2 =  5.94134e-15
  Excitation energy:                                               2.609329 eV
  Term symbol:  8 (1) B2                                    R^2 =  5.63652e-15
  Excitation energy:                                               4.157460 eV
  Term symbol:  9 (1) B2                                    R^2 =  9.05507e-14
  Excitation energy:                                               4.697564 eV
  Excited state 10 (singlet, B2)                                   [converged]
  Term symbol:  10 (1) B2                                   R^2 =  1.18408e-13
  Excitation energy:                                               4.799530 eV
  Excited state 11 (singlet, B2)                                   [converged]
  Term symbol:  11 (1) B2                                   R^2 =  3.63122e-13
  Excitation energy:                                               4.916805 eV
  Excited state 12 (singlet, B2)                                   [converged]
  Term symbol:  12 (1) B2                                   R^2 =  1.15303e-12
  Excitation energy:                                               5.553739 eV
  Excited state 13 (singlet, B2)                                   [converged]
  Term symbol:  13 (1) B2                                   R^2 =  2.02792e-12
  Excitation energy:                                               5.731791 eV
  Excited state 14 (singlet, B2)                                   [converged]
  Term symbol:  14 (1) B2                                   R^2 =  3.66383e-11
  Excitation energy:                                               6.889746 eV
  Excited state 15 (singlet, B2)                                   [converged]
  Term symbol:  15 (1) B2                                   R^2 =  1.42813e-11
  Excitation energy:                                               6.923447 eV
  Excited state 16 (singlet, B2)                                   [converged]
  Term symbol:  16 (1) B2                                   R^2 =  2.89253e-11
  Excitation energy:                                               6.940204 eV
  Excited state 17 (singlet, B2)                                   [converged]
  Excitation energy:                                               1.360521 eV
  Excitation energy:                                               1.068054 eV
  Excitation energy:                                               0.897252 eV
  Excitation energy:                                               0.658492 eV
  Excitation energy:                                               0.292893 eV
  Excitation energy:                                               0.225555 eV
  Excitation energy:                                               0.209795 eV
  Excitation energy:                                               0.140518 eV
  Excitation energy:                                               0.080460 eV
  Excitation energy:                                               0.055819 eV
  Excitation energy:                                               0.026286 eV
  Excitation energy:                                               8.750485 eV
  Excitation energy:                                               8.594929 eV
  Excitation energy:                                               8.034128 eV
  Excitation energy:                                               7.829777 eV
  Excitation energy:                                               7.005402 eV
  Excitation energy:                                               6.753795 eV
  Excitation energy:                                               6.047527 eV
  Excitation energy:                                               4.499396 eV
  Excitation energy:                                               3.959292 eV
  Excitation energy:                                               3.857325 eV
  Excitation energy:                                               3.740050 eV
  Excitation energy:                                               3.103116 eV
  Excitation energy:                                               2.925065 eV
  Excitation energy:                                               1.767109 eV
  Excitation energy:                                               1.733408 eV
  Excitation energy:                                               1.716651 eV
  Excitation energy:                                               1.634683 eV
  Excitation energy:                                               1.457141 eV
  Excitation energy:                                               1.164674 eV
  Excitation energy:                                               0.993872 eV
  Excitation energy:                                               0.755112 eV
  Excitation energy:                                               0.389513 eV
  Excitation energy:                                               0.322176 eV
  Excitation energy:                                               0.306415 eV
  Excitation energy:                                               0.237138 eV
  Excitation energy:                                               0.177080 eV
  Excitation energy:                                               0.152440 eV
  Excitation energy:                                               0.122906 eV
  Excitation energy:                                               0.096620 eV

             Orbital Energies (a.u.) and Symmetries
 --------------------------------------------------------------

 Alpha MOs, Restricted
 -- Occupied --
-11.185 -11.183  -0.990  -0.730  -0.609  -0.515  -0.463  -0.325
  1 A1    2 A1    3 A1    4 A1    1 B1    5 A1    2 B1    1 B2
 -0.027
  6 A1

 Beta MOs, Restricted
 -- Occupied --
-11.185 -11.183  -0.990  -0.730  -0.609  -0.515  -0.463  -0.325
  1 A1    2 A1    3 A1    4 A1    1 B1    5 A1    2 B1    1 B2
 -0.027
  6 A1

          Ground-State Mulliken Net Atomic Charges

     Atom                 Charge (a.u.)
  ----------------------------------------
      1 C                     0.188305
      2 C                    -0.634901
      3 H                     0.033461
      4 H                     0.043434
      5 H                     0.033461
      6 H                     0.043434
      7 H                    -0.707194
  ----------------------------------------
  Sum of atomic charges =    -1.000000

                    Cartesian Multipole Moments
 -----------------------------------------------------------------
    Charge (ESU x 10^10)
                -4.8032
    Dipole Moment (Debye)
         X      -0.0000      Y      -0.0000      Z      42.5880
       Tot      42.5880
    Quadrupole Moments (Debye-Ang)
        XX     -34.7799     XY       0.0000     YY     -38.9641
        XZ       0.0000     YZ       0.0000     ZZ    -454.9863

 Total job time:  1274.60s(wall), 7076.34s(cpu)
        *  Thank you very much for using Q-Chem.  Have a nice day.  *
