 Q-Chem 5.4 (devel), Q-Chem, Inc., Pleasanton, CA (2021)
 Q-Chem 5.4.1 for Intel X86 EM64T Linux

User input:
--------------------------------------------------------------
$comment
	OH_Ethylene CAP-ADC(2) opt
	Basis: C: aDZ+4p1d, H: DZ, O: aDZ
$end

$molecule
-1 1
C        -0.6645000000    0.0000000000    1.1619088658
C         0.6645000000    0.0000000000    1.1619088658
H        -1.1590800000    0.0000000000    0.1995598658
H         1.1590800000    0.0000000000    0.1995598658
H        -1.1590800000    0.0000000000    2.1242568658
H         1.1590800000    0.0000000000    2.1242568658
O         0.0000000000    0.0000000000   -1.5841414040
H         0.0000000000    0.0000000000   -2.5471307683
$end

$rem
	basis gen
	method adc(2)
        EE_STATES [0,0,0,30]
	scf_convergence 8
	thresh 14
	adc_cap 1
	cap_type 2
	cap_x 1500
	cap_x_end 5000
	cap_x_step 500
	xc_grid 000250000974
	adc_print 3
	adc_davidson_conv 5
	adc_nguess_singles 100
	adc_nguess_doubles 50
	adc_davidson_maxsubspace 400
	adc_davidson_maxiter 40
	adc_davidson_thresh 14
	mem_total 95000
	threads 12
$end

$basis
C     1
S   9   1.00
      6.665000D+03           6.920000D-04
      1.000000D+03           5.329000D-03
      2.280000D+02           2.707700D-02
      6.471000D+01           1.017180D-01
      2.106000D+01           2.747400D-01
      7.495000D+00           4.485640D-01
      2.797000D+00           2.850740D-01
      5.215000D-01           1.520400D-02
      1.596000D-01          -3.191000D-03
S   9   1.00
      6.665000D+03          -1.460000D-04
      1.000000D+03          -1.154000D-03
      2.280000D+02          -5.725000D-03
      6.471000D+01          -2.331200D-02
      2.106000D+01          -6.395500D-02
      7.495000D+00          -1.499810D-01
      2.797000D+00          -1.272620D-01
      5.215000D-01           5.445290D-01
      1.596000D-01           5.804960D-01
S   1   1.00
      1.596000D-01           1.000000D+00
S   1   1.00
      0.0469000              1.0000000
P   4   1.00
      9.439000D+00           3.810900D-02
      2.002000D+00           2.094800D-01
      5.456000D-01           5.085570D-01
      1.517000D-01           4.688420D-01
P   1   1.00
      1.517000D-01           1.000000D+00
P   1   1.00
      0.0404100              1.0000000
P    1  1.00
     0.0269400   1.0
P    1  1.00
     0.0179600   1.0
P    1  1.00
     0.0119733   1.0
P    1  1.00
     0.0079822   1.0
D   1   1.00
      5.500000D-01           1.0000000
D   1   1.00
      0.1510000              1.0000000
D    1  1.00
     0.0755000   1.0
****
C     2
S   9   1.00
      6.665000D+03           6.920000D-04
      1.000000D+03           5.329000D-03
      2.280000D+02           2.707700D-02
      6.471000D+01           1.017180D-01
      2.106000D+01           2.747400D-01
      7.495000D+00           4.485640D-01
      2.797000D+00           2.850740D-01
      5.215000D-01           1.520400D-02
      1.596000D-01          -3.191000D-03
S   9   1.00
      6.665000D+03          -1.460000D-04
      1.000000D+03          -1.154000D-03
      2.280000D+02          -5.725000D-03
      6.471000D+01          -2.331200D-02
      2.106000D+01          -6.395500D-02
      7.495000D+00          -1.499810D-01
      2.797000D+00          -1.272620D-01
      5.215000D-01           5.445290D-01
      1.596000D-01           5.804960D-01
S   1   1.00
      1.596000D-01           1.000000D+00
S   1   1.00
      0.0469000              1.0000000
P   4   1.00
      9.439000D+00           3.810900D-02
      2.002000D+00           2.094800D-01
      5.456000D-01           5.085570D-01
      1.517000D-01           4.688420D-01
P   1   1.00
      1.517000D-01           1.000000D+00
P   1   1.00
      0.0404100              1.0000000
P    1  1.00
     0.0269400   1.0
P    1  1.00
     0.0179600   1.0
P    1  1.00
     0.0119733   1.0
P    1  1.00
     0.0079822   1.0
D   1   1.00
      5.500000D-01           1.0000000
D   1   1.00
      0.1510000              1.0000000
D    1  1.00
     0.0755000   1.0
****
H     3
S   4   1.00
      1.301000D+01           1.968500D-02
      1.962000D+00           1.379770D-01
      4.446000D-01           4.781480D-01
      1.220000D-01           5.012400D-01
S   1   1.00
      1.220000D-01           1.000000D+00
P   1   1.00
      7.270000D-01           1.0000000
****
H     4
S   4   1.00
      1.301000D+01           1.968500D-02
      1.962000D+00           1.379770D-01
      4.446000D-01           4.781480D-01
      1.220000D-01           5.012400D-01
S   1   1.00
      1.220000D-01           1.000000D+00
P   1   1.00
      7.270000D-01           1.0000000
****
H     5
S   4   1.00
      1.301000D+01           1.968500D-02
      1.962000D+00           1.379770D-01
      4.446000D-01           4.781480D-01
      1.220000D-01           5.012400D-01
S   1   1.00
      1.220000D-01           1.000000D+00
P   1   1.00
      7.270000D-01           1.0000000
****
H     6
S   4   1.00
      1.301000D+01           1.968500D-02
      1.962000D+00           1.379770D-01
      4.446000D-01           4.781480D-01
      1.220000D-01           5.012400D-01
S   1   1.00
      1.220000D-01           1.000000D+00
P   1   1.00
      7.270000D-01           1.0000000
****
O     7
S    9   1.00
      1.172000D+04           7.100000D-04
      1.759000D+03           5.470000D-03
      4.008000D+02           2.783700D-02
      1.137000D+02           1.048000D-01
      3.703000D+01           2.830620D-01
      1.327000D+01           4.487190D-01
      5.025000D+00           2.709520D-01
      1.013000D+00           1.545800D-02
      3.023000D-01          -2.585000D-03
S    9   1.00
      1.172000D+04          -1.600000D-04
      1.759000D+03          -1.263000D-03
      4.008000D+02          -6.267000D-03
      1.137000D+02          -2.571600D-02
      3.703000D+01          -7.092400D-02
      1.327000D+01          -1.654110D-01
      5.025000D+00          -1.169550D-01
      1.013000D+00           5.573680D-01
      3.023000D-01           5.727590D-01
S    1   1.00
      3.023000D-01           1.000000D+00
S    1   1.00
      0.0789600              1.0000000
P    4   1.00
      1.770000D+01           4.301800D-02
      3.854000D+00           2.289130D-01
      1.046000D+00           5.087280D-01
      2.753000D-01           4.605310D-01
P    1   1.00
      2.753000D-01           1.000000D+00
P    1   1.00
      0.0685600              1.0000000
D    1   1.00
      1.185000D+00           1.0000000
D    1   1.00
      0.3320000              1.0000000
****
H     8
S   4   1.00
      1.301000D+01           1.968500D-02
      1.962000D+00           1.379770D-01
      4.446000D-01           4.781480D-01
      1.220000D-01           5.012400D-01
S   1   1.00
      1.220000D-01           1.000000D+00
P   1   1.00
      7.270000D-01           1.0000000
****
$end
--------------------------------------------------------------

             Standard Nuclear Orientation (Angstroms)
    I     Atom           X                Y                Z
 ----------------------------------------------------------------
    1      C      -0.6645000000    -0.0000000000     1.0270977517
    2      C       0.6645000000     0.0000000000     1.0270977517
    3      H      -1.1590800000    -0.0000000000     0.0647487517
    4      H       1.1590800000     0.0000000000     0.0647487517
    5      H      -1.1590800000    -0.0000000000     1.9894457517
    6      H       1.1590800000     0.0000000000     1.9894457517
    7      O       0.0000000000    -0.0000000000    -1.7189525181
    8      H       0.0000000000    -0.0000000000    -2.6819418824
 ----------------------------------------------------------------

   13    -153.4436410297      2.32E-09 Convergence criterion met
 Total energy in the final basis set = -153.44364103
  Term symbol:  1 (1) B2                                    R^2 =  2.52254e-11
  Excitation energy:                                               0.824132 eV
  Term symbol:  2 (1) B2                                    R^2 =  2.79248e-11
  Excitation energy:                                               1.008143 eV
  Term symbol:  3 (1) B2                                    R^2 =  3.21553e-11
  Excitation energy:                                               1.118446 eV
  Term symbol:  4 (1) B2                                    R^2 =  7.61600e-11
  Excitation energy:                                               1.593021 eV
  Term symbol:  5 (1) B2                                    R^2 =  2.28332e-11
  Excitation energy:                                               1.848671 eV
  Term symbol:  6 (1) B2                                    R^2 =  6.47993e-11
  Excitation energy:                                               1.883326 eV
  Term symbol:  7 (1) B2                                    R^2 =  1.60418e-10
  Excitation energy:                                               2.559827 eV
  Term symbol:  8 (1) B2                                    R^2 =  1.49957e-10
  Excitation energy:                                               2.967359 eV
  Term symbol:  9 (1) B2                                    R^2 =  6.35440e-10
  Excitation energy:                                               3.102681 eV
  Excited state 10 (singlet, B2)                                   [converged]
  Term symbol:  10 (1) B2                                   R^2 =  4.08072e-10
  Excitation energy:                                               3.627903 eV
  Excited state 11 (singlet, B2)                                   [converged]
  Term symbol:  11 (1) B2                                   R^2 =  3.42621e-09
  Excitation energy:                                               4.195732 eV
  Excited state 12 (singlet, B2)                                   [converged]
  Term symbol:  12 (1) B2                                   R^2 =  2.82693e-09
  Excitation energy:                                               4.386422 eV
  Excited state 13 (singlet, B2)                                   [converged]
  Term symbol:  13 (1) B2                                   R^2 =  3.87569e-09
  Excitation energy:                                               4.969338 eV
  Excited state 14 (singlet, B2)                                   [converged]
  Term symbol:  14 (1) B2                                   R^2 =  2.04063e-09
  Excitation energy:                                               5.189406 eV
  Excited state 15 (singlet, B2)                                   [converged]
  Term symbol:  15 (1) B2                                   R^2 =  3.85289e-09
  Excitation energy:                                               5.237299 eV
  Excited state 16 (singlet, B2)                                   [converged]
  Term symbol:  16 (1) B2                                   R^2 =  1.42816e-09
  Excitation energy:                                               5.617552 eV
  Excited state 17 (singlet, B2)                                   [converged]
  Excitation energy:                                               2.580355 eV
  Excitation energy:                                               2.319463 eV
  Excitation energy:                                               2.278190 eV
  Excitation energy:                                               2.201761 eV
  Excitation energy:                                               1.833320 eV
  Excitation energy:                                               1.420317 eV
  Excitation energy:                                               1.241967 eV
  Excitation energy:                                               1.153365 eV
  Excitation energy:                                               0.463319 eV
  Excitation energy:                                               0.413753 eV
  Excitation energy:                                               0.379597 eV
  Excitation energy:                                               7.730806 eV
  Excitation energy:                                               7.546796 eV
  Excitation energy:                                               7.436492 eV
  Excitation energy:                                               6.961918 eV
  Excitation energy:                                               6.706268 eV
  Excitation energy:                                               6.671613 eV
  Excitation energy:                                               5.995112 eV
  Excitation energy:                                               5.587580 eV
  Excitation energy:                                               5.452258 eV
  Excitation energy:                                               4.927035 eV
  Excitation energy:                                               4.359207 eV
  Excitation energy:                                               4.168517 eV
  Excitation energy:                                               3.585601 eV
  Excitation energy:                                               3.365533 eV
  Excitation energy:                                               3.317640 eV
  Excitation energy:                                               2.937386 eV
  Excitation energy:                                               2.762174 eV
  Excitation energy:                                               2.713163 eV
  Excitation energy:                                               2.452270 eV
  Excitation energy:                                               2.410997 eV
  Excitation energy:                                               2.334568 eV
  Excitation energy:                                               1.966127 eV
  Excitation energy:                                               1.553124 eV
  Excitation energy:                                               1.374775 eV
  Excitation energy:                                               1.286173 eV
  Excitation energy:                                               0.596127 eV
  Excitation energy:                                               0.546561 eV
  Excitation energy:                                               0.512405 eV
  Excitation energy:                                               0.132808 eV

             Orbital Energies (a.u.) and Symmetries
 --------------------------------------------------------------

 Alpha MOs, Restricted
 -- Occupied --
-20.215 -11.049 -11.047  -0.932  -0.854  -0.598  -0.473  -0.384
  1 A1    2 A1    1 B1    3 A1    4 A1    2 B1    5 A1    6 A1
 -0.328  -0.273  -0.195  -0.131  -0.130
  3 B1    7 A1    1 B2    4 B1    2 B2

 Beta MOs, Restricted
 -- Occupied --
-20.215 -11.049 -11.047  -0.932  -0.854  -0.598  -0.473  -0.384
  1 A1    2 A1    1 B1    3 A1    4 A1    2 B1    5 A1    6 A1
 -0.328  -0.273  -0.195  -0.131  -0.130
  3 B1    7 A1    1 B2    4 B1    2 B2

          Ground-State Mulliken Net Atomic Charges

     Atom                 Charge (a.u.)
  ----------------------------------------
      1 C                    -0.116578
      2 C                    -0.116578
      3 H                     0.157416
      4 H                     0.157416
      5 H                    -0.015672
      6 H                    -0.015672
      7 O                    -1.121175
      8 H                     0.070844
  ----------------------------------------
  Sum of atomic charges =    -1.000000

                    Cartesian Multipole Moments
 -----------------------------------------------------------------
    Charge (ESU x 10^10)
                -4.8032
    Dipole Moment (Debye)
         X      -0.0000      Y       0.0000      Z       5.1329
       Tot       5.1329
    Quadrupole Moments (Debye-Ang)
        XX     -23.7132     XY      -0.0000     YY     -26.4535
        XZ      -0.0000     YZ      -0.0000     ZZ     -33.3109

 Total job time:  883.72s(wall), 4838.02s(cpu)
        *  Thank you very much for using Q-Chem.  Have a nice day.  *
