 Q-Chem 5.4 (devel), Q-Chem, Inc., Pleasanton, CA (2021)
 Q-Chem 5.4.1 for Intel X86 EM64T Linux

User input:
--------------------------------------------------------------
$molecule
-1 1
C        -0.6645000000    0.0000000000   -0.2082049804
C         0.6645000000    0.0000000000   -0.2082049804
H        -1.1590800000    0.0000000000    0.7541440196
H         1.1590800000    0.0000000000    0.7541440196
H        -1.1590800000    0.0000000000   -1.1705529804
H         1.1590800000    0.0000000000   -1.1705529804
O         10.6             0.0            -0.2082049804
H         11.6             0.0            -0.2082049804
$end

$rem
   JOBTYPE opt
   METHOD MP2
   BASIS gen
   PURECART 11
   THRESH 14
   S2THRESH 14
   THREADS 10
   MEM_TOTAL 95000
$end
$basis
C     1
cc-pvtz
****
C     2
cc-pvtz
****
H     3
cc-pvtz
****
H     4
cc-pvtz
****
H     5
cc-pvtz
****
H     6
cc-pvtz
****
O     7
aug-cc-pvtz
****
H     7
aug-cc-pvtz
****
$end

$opt
FIXED
1 xyz
2 xyz
3 xyz
4 xyz
5 xyz
6 xyz
7 yz
ENDFIXED
$end
--------------------------------------------------------------

   12    -153.4692339432      9.94e-09  Convergence criterion met
 Total energy in the final basis set =     -153.4692339432
        MP2         total energy =                  -154.09612508 au
   11    -153.4705672855      6.03e-09  Convergence criterion met
 Total energy in the final basis set =     -153.4705672855
        MP2         total energy =                  -154.09678969 au
   11    -153.4716214679      6.13e-09  Convergence criterion met
 Total energy in the final basis set =     -153.4716214679
        MP2         total energy =                  -154.09706821 au

             Standard Nuclear Orientation (Angstroms)
    I     Atom           X                Y                Z
 ----------------------------------------------------------------
    1      C       0.0000000000     0.0000000000     4.5163799790
    2      C       0.0000000000     0.0000000000     3.1873799790
    3      H       0.9623488622     0.0000000000     5.0109599901
    4      H       0.9623488889     0.0000000000     2.6927999901
    5      H      -0.9623488622     0.0000000000     5.0109599901
    6      H      -0.9623488889     0.0000000000     2.6927999901
    7      O       0.0000000000     0.0000000000    -6.7481200210
    8      H       0.0000000000     0.0000000000    -7.7151598533
 ----------------------------------------------------------------

   11    -153.4716379018      4.52e-09  Convergence criterion met
 Total energy in the final basis set =     -153.4716379018
        MP2         total energy =                  -154.09706836 au
 Final energy is   -154.097068362783
 **  OPTIMIZATION CONVERGED  **

             Orbital Energies (a.u.) and Symmetries
 --------------------------------------------------------------

 Alpha MOs, Restricted
 -- Occupied --
-20.187 -11.175 -11.173  -0.987  -0.902  -0.728  -0.608  -0.515
  1 A1    2 A1    3 A1    4 A1    5 A1    6 A1    1 B1    7 A1
 -0.463  -0.326  -0.251  -0.109  -0.109
  2 B1    1 B2    8 A1    2 B2    3 B1

 Beta MOs, Restricted
 -- Occupied --
-20.187 -11.175 -11.173  -0.987  -0.902  -0.728  -0.608  -0.515
  1 A1    2 A1    3 A1    4 A1    5 A1    6 A1    1 B1    7 A1
 -0.463  -0.326  -0.251  -0.109  -0.109
  2 B1    1 B2    8 A1    2 B2    3 B1

          Ground-State Mulliken Net Atomic Charges

     Atom                 Charge (a.u.)
  ----------------------------------------
      1 C                    -0.309993
      2 C                    -0.299866
      3 H                     0.145315
      4 H                     0.159615
      5 H                     0.145315
      6 H                     0.159615
      7 O                    -1.151622
      8 H                     0.151622
  ----------------------------------------
  Sum of atomic charges =    -1.000000

                    Cartesian Multipole Moments
 -----------------------------------------------------------------
    Charge (ESU x 10^10)
                -4.8032
    Dipole Moment (Debye)
         X       0.0000      Y      -0.0000      Z      31.1858
       Tot      31.1858
    Quadrupole Moments (Debye-Ang)
        XX     -23.2646     XY      -0.0000     YY     -26.9262
        XZ       0.0000     YZ       0.0000     ZZ    -227.5843

 Total job time:  78.81s(wall), 438.59s(cpu)
        *  Thank you very much for using Q-Chem.  Have a nice day.  *
