 Q-Chem 5.4 (devel), Q-Chem, Inc., Pleasanton, CA (2021)
 Q-Chem 5.4.1 for Intel X86 EM64T Linux

User input:
--------------------------------------------------------------
$molecule
-1 1
C        -0.6645000000    0.0000000000   -0.2082049804
C         0.6645000000    0.0000000000   -0.2082049804
H        -1.1590800000    0.0000000000    0.7541440196
H         1.1590800000    0.0000000000    0.7541440196
H        -1.1590800000    0.0000000000   -1.1705529804
H         1.1590800000    0.0000000000   -1.1705529804
O         11.6             0.0            -0.2082049804
H         10.6             0.0            -0.2082049804
$end

$rem
   JOBTYPE opt
   METHOD MP2
   BASIS gen
   PURECART 11
   THRESH 14
   S2THRESH 14
   THREADS 10
   MEM_TOTAL 95000
$end
$basis
C     1
cc-pvtz
****
C     2
cc-pvtz
****
H     3
cc-pvtz
****
H     4
cc-pvtz
****
H     5
cc-pvtz
****
H     6
cc-pvtz
****
O     7
aug-cc-pvtz
****
H     7
aug-cc-pvtz
****
$end

$opt
FIXED
1 xyz
2 xyz
3 xyz
4 xyz
5 xyz
6 xyz
7 yz
ENDFIXED
$end
--------------------------------------------------------------

   12    -153.4691581194      9.89e-09  Convergence criterion met
 Total energy in the final basis set =     -153.4691581194
        MP2         total energy =                  -154.09606182 au
   11    -153.4704904959      6.52e-09  Convergence criterion met
 Total energy in the final basis set =     -153.4704904959
        MP2         total energy =                  -154.09672597 au
   11    -153.4715439630      6.50e-09  Convergence criterion met
 Total energy in the final basis set =     -153.4715439630
        MP2         total energy =                  -154.09700430 au

             Standard Nuclear Orientation (Angstroms)
    I     Atom           X                Y                Z
 ----------------------------------------------------------------
    1      C       0.0000000000     0.0000000000     4.8046187325
    2      C       0.0000000000     0.0000000000     3.4756187325
    3      H       0.9623488630     0.0000000000     5.2991987428
    4      H       0.9623488879     0.0000000000     2.9810387428
    5      H      -0.9623488630     0.0000000000     5.2991987428
    6      H      -0.9623488879     0.0000000000     2.9810387428
    7      O       0.0000000000     0.0000000000    -7.4598812675
    8      H       0.0000000000     0.0000000000    -6.4928311272
 ----------------------------------------------------------------

   11    -153.4715604157      4.99e-09  Convergence criterion met
 Total energy in the final basis set =     -153.4715604157
        MP2         total energy =                  -154.09700446 au
 Final energy is   -154.097004459937
 **  OPTIMIZATION CONVERGED  **

             Orbital Energies (a.u.) and Symmetries
 --------------------------------------------------------------

 Alpha MOs, Restricted
 -- Occupied --
-20.187 -11.181 -11.179  -0.993  -0.902  -0.735  -0.614  -0.521
  1 A1    2 A1    3 A1    4 A1    5 A1    6 A1    1 B1    7 A1
 -0.470  -0.332  -0.251  -0.109  -0.109
  2 B1    1 B2    8 A1    3 B1    2 B2

 Beta MOs, Restricted
 -- Occupied --
-20.187 -11.181 -11.179  -0.993  -0.902  -0.735  -0.614  -0.521
  1 A1    2 A1    3 A1    4 A1    5 A1    6 A1    1 B1    7 A1
 -0.470  -0.332  -0.251  -0.109  -0.109
  2 B1    1 B2    8 A1    3 B1    2 B2

          Ground-State Mulliken Net Atomic Charges

     Atom                 Charge (a.u.)
  ----------------------------------------
      1 C                    -0.308350
      2 C                    -0.300207
      3 H                     0.146612
      4 H                     0.157666
      5 H                     0.146612
      6 H                     0.157666
      7 O                    -1.151427
      8 H                     0.151427
  ----------------------------------------
  Sum of atomic charges =    -1.000000

                    Cartesian Multipole Moments
 -----------------------------------------------------------------
    Charge (ESU x 10^10)
                -4.8032
    Dipole Moment (Debye)
         X      -0.0000      Y      -0.0000      Z      36.6947
       Tot      36.6947
    Quadrupole Moments (Debye-Ang)
        XX     -23.2618     XY       0.0000     YY     -26.9242
        XZ      -0.0000     YZ      -0.0000     ZZ    -304.9427

 Total job time:  75.88s(wall), 429.31s(cpu)
        *  Thank you very much for using Q-Chem.  Have a nice day.  *
