 Q-Chem 5.4 (devel), Q-Chem, Inc., Pleasanton, CA (2021)
 Q-Chem 5.4.1 for Intel X86 EM64T Linux

User input:
--------------------------------------------------------------
$molecule
-1 1
C        -0.6645000000    0.0000000000   -0.2082049804
C         0.6645000000    0.0000000000   -0.2082049804
H        -1.1590800000    0.0000000000    0.7541440196
H         1.1590800000    0.0000000000    0.7541440196
H        -1.1590800000    0.0000000000   -1.1705529804
H         1.1590800000    0.0000000000   -1.1705529804
O         4.6             0.0            -0.2082049804
H         3.6             0.0            -0.2082049804
$end

$rem
   JOBTYPE opt
   METHOD MP2
   BASIS gen
   PURECART 11
   THRESH 14
   S2THRESH 14
   THREADS 10
   MEM_TOTAL 95000
$end
$basis
C     1
cc-pvtz
****
C     2
cc-pvtz
****
H     3
cc-pvtz
****
H     4
cc-pvtz
****
H     5
cc-pvtz
****
H     6
cc-pvtz
****
O     7
aug-cc-pvtz
****
H     7
aug-cc-pvtz
****
$end

$opt
FIXED
1 xyz
2 xyz
3 xyz
4 xyz
5 xyz
6 xyz
7 yz
ENDFIXED
$end
--------------------------------------------------------------

   12    -153.4710342340      9.82e-09  Convergence criterion met
 Total energy in the final basis set =     -153.4710342340
        MP2         total energy =                  -154.09891054 au
   12    -153.4724557170      4.37e-09  Convergence criterion met
 Total energy in the final basis set =     -153.4724557170
        MP2         total energy =                  -154.09960665 au
   12    -153.4735702829      4.22e-09  Convergence criterion met
 Total energy in the final basis set =     -153.4735702829
        MP2         total energy =                  -154.09989372 au

             Standard Nuclear Orientation (Angstroms)
    I     Atom           X                Y                Z
 ----------------------------------------------------------------
    1      C       0.0000000000     0.0000000000     2.2846890992
    2      C       0.0000000000     0.0000000000     0.9556890992
    3      H       0.9623488476     0.0000000000     2.7792691243
    4      H       0.9623489081     0.0000000000     0.4611091243
    5      H      -0.9623488476     0.0000000000     2.7792691243
    6      H      -0.9623489081     0.0000000000     0.4611091243
    7      O       0.0000000000     0.0000000000    -2.9798109008
    8      H       0.0000000000     0.0000000000    -2.0133236943
 ----------------------------------------------------------------

   12    -153.4735870943      3.59e-09  Convergence criterion met
 Total energy in the final basis set =     -153.4735870943
        MP2         total energy =                  -154.09989387 au
 Final energy is   -154.099893874954
 **  OPTIMIZATION CONVERGED  **

             Orbital Energies (a.u.) and Symmetries
 --------------------------------------------------------------

 Alpha MOs, Restricted
 -- Occupied --
-20.193 -11.117 -11.116  -0.930  -0.908  -0.670  -0.551  -0.456
  1 A1    2 A1    3 A1    4 A1    5 A1    6 A1    1 B1    7 A1
 -0.405  -0.269  -0.257  -0.115  -0.114
  2 B1    1 B2    8 A1    2 B2    3 B1

 Beta MOs, Restricted
 -- Occupied --
-20.193 -11.117 -11.116  -0.930  -0.908  -0.670  -0.551  -0.456
  1 A1    2 A1    3 A1    4 A1    5 A1    6 A1    1 B1    7 A1
 -0.405  -0.269  -0.257  -0.115  -0.114
  2 B1    1 B2    8 A1    2 B2    3 B1

          Ground-State Mulliken Net Atomic Charges

     Atom                 Charge (a.u.)
  ----------------------------------------
      1 C                    -0.345173
      2 C                    -0.287259
      3 H                     0.128948
      4 H                     0.180522
      5 H                     0.128948
      6 H                     0.180522
      7 O                    -1.163731
      8 H                     0.177223
  ----------------------------------------
  Sum of atomic charges =    -1.000000

                    Cartesian Multipole Moments
 -----------------------------------------------------------------
    Charge (ESU x 10^10)
                -4.8032
    Dipole Moment (Debye)
         X       0.0000      Y       0.0000      Z      14.3691
       Tot      14.3691
    Quadrupole Moments (Debye-Ang)
        XX     -23.3169     XY      -0.0000     YY     -26.9352
        XZ       0.0000     YZ      -0.0000     ZZ     -71.8888

 Total job time:  142.41s(wall), 735.11s(cpu)
        *  Thank you very much for using Q-Chem.  Have a nice day.  *
