 Q-Chem 5.4 (devel), Q-Chem, Inc., Pleasanton, CA (2021)
 Q-Chem 5.4.1 for Intel X86 EM64T Linux

User input:
--------------------------------------------------------------
$molecule
-1 1
C        -0.6645000000    0.0000000000   -0.2082049804
C         0.6645000000    0.0000000000   -0.2082049804
H        -1.1590800000    0.0000000000    0.7541440196
H         1.1590800000    0.0000000000    0.7541440196
H        -1.1590800000    0.0000000000   -1.1705529804
H         1.1590800000    0.0000000000   -1.1705529804
O         3.6             0.0            -0.2082049804
H         4.6             0.0            -0.2082049804
$end

$rem
   JOBTYPE opt
   METHOD MP2
   BASIS gen
   PURECART 11
   THRESH 14
   S2THRESH 14
   THREADS 10
   MEM_TOTAL 95000
$end
$basis
C     1
cc-pvtz
****
C     2
cc-pvtz
****
H     3
cc-pvtz
****
H     4
cc-pvtz
****
H     5
cc-pvtz
****
H     6
cc-pvtz
****
O     7
aug-cc-pvtz
****
H     7
aug-cc-pvtz
****
$end

$opt
FIXED
1 xyz
2 xyz
3 xyz
4 xyz
5 xyz
6 xyz
7 yz
ENDFIXED
$end
--------------------------------------------------------------

   13    -153.4755208254      3.56e-09  Convergence criterion met
 Total energy in the final basis set =     -153.4755208254
        MP2         total energy =                  -154.10407649 au
   12    -153.4768849553      3.50e-09  Convergence criterion met
 Total energy in the final basis set =     -153.4768849553
        MP2         total energy =                  -154.10473321 au
   12    -153.4779810101      3.86e-09  Convergence criterion met
 Total energy in the final basis set =     -153.4779810101
        MP2         total energy =                  -154.10500910 au

             Standard Nuclear Orientation (Angstroms)
    I     Atom           X                Y                Z
 ----------------------------------------------------------------
    1      C       0.0000000000     0.0000000000     1.9964004496
    2      C       0.0000000000     0.0000000000     0.6674004496
    3      H       0.9623488435     0.0000000000     2.4909804791
    4      H       0.9623489146     0.0000000000     0.1728204791
    5      H      -0.9623488435     0.0000000000     2.4909804791
    6      H      -0.9623489146     0.0000000000     0.1728204791
    7      O       0.0000000000     0.0000000000    -2.2680995504
    8      H       0.0000000000     0.0000000000    -3.2353031469
 ----------------------------------------------------------------

   12    -153.4779960458      2.68e-09  Convergence criterion met
 Total energy in the final basis set =     -153.4779960458
        MP2         total energy =                  -154.10500923 au
 Final energy is   -154.105009231188
 **  OPTIMIZATION CONVERGED  **

             Orbital Energies (a.u.) and Symmetries
 --------------------------------------------------------------

 Alpha MOs, Restricted
 -- Occupied --
-20.199 -11.070 -11.068  -0.917  -0.884  -0.621  -0.506  -0.407
  1 A1    2 A1    3 A1    4 A1    5 A1    6 A1    1 B1    7 A1
 -0.358  -0.265  -0.225  -0.123  -0.123
  2 B1    8 A1    1 B2    3 B1    2 B2

 Beta MOs, Restricted
 -- Occupied --
-20.199 -11.070 -11.068  -0.917  -0.884  -0.621  -0.506  -0.407
  1 A1    2 A1    3 A1    4 A1    5 A1    6 A1    1 B1    7 A1
 -0.358  -0.265  -0.225  -0.123  -0.123
  2 B1    8 A1    1 B2    3 B1    2 B2

          Ground-State Mulliken Net Atomic Charges

     Atom                 Charge (a.u.)
  ----------------------------------------
      1 C                    -0.369043
      2 C                    -0.253865
      3 H                     0.109817
      4 H                     0.200787
      5 H                     0.109817
      6 H                     0.200787
      7 O                    -1.145451
      8 H                     0.147151
  ----------------------------------------
  Sum of atomic charges =    -1.000000

                    Cartesian Multipole Moments
 -----------------------------------------------------------------
    Charge (ESU x 10^10)
                -4.8032
    Dipole Moment (Debye)
         X      -0.0000      Y       0.0000      Z       8.1625
       Tot       8.1625
    Quadrupole Moments (Debye-Ang)
        XX     -23.4737     XY      -0.0000     YY     -27.0195
        XZ      -0.0000     YZ      -0.0000     ZZ     -44.8514

 Total job time:  158.40s(wall), 819.65s(cpu)
        *  Thank you very much for using Q-Chem.  Have a nice day.  *
