 Q-Chem 5.4 (devel), Q-Chem, Inc., Pleasanton, CA (2021)
 Q-Chem 5.4.1 for Intel X86 EM64T Linux

User input:
--------------------------------------------------------------
$comment
	H_Ethylene CAP-ADC(2) 3z
	Basis: C: aDZ+4p1d, H: DZ
$end

$molecule
-1 1
C        -0.6645000000    0.0000000000   -0.1764707059
C         0.6645000000    0.0000000000   -0.1764707059
H        -1.1590800000    0.0000000000    0.7858782941
H         1.1590800000    0.0000000000    0.7858782941
H        -1.1590800000    0.0000000000   -1.1388187059
H         1.1590800000    0.0000000000   -1.1388187059
H         0.0000000000    0.0000000000  -10.1764707059
$end

$rem
	basis gen
	method adc(3)
        EE_STATES [0,30,0,0]
	scf_convergence 8
	thresh 14
	adc_cap 1
	cap_type 2
	cap_x 1500
	cap_x_end 5000
	cap_x_step 500
	xc_grid 000250000974
	adc_print 3
	adc_davidson_conv 5
	adc_nguess_singles 100
	adc_nguess_doubles 50
	adc_davidson_maxsubspace 400
	adc_davidson_maxiter 40
	adc_davidson_thresh 14
	mem_total 95000
	threads 12
$end

$basis
C     1
S   9   1.00
      6.665000D+03           6.920000D-04
      1.000000D+03           5.329000D-03
      2.280000D+02           2.707700D-02
      6.471000D+01           1.017180D-01
      2.106000D+01           2.747400D-01
      7.495000D+00           4.485640D-01
      2.797000D+00           2.850740D-01
      5.215000D-01           1.520400D-02
      1.596000D-01          -3.191000D-03
S   9   1.00
      6.665000D+03          -1.460000D-04
      1.000000D+03          -1.154000D-03
      2.280000D+02          -5.725000D-03
      6.471000D+01          -2.331200D-02
      2.106000D+01          -6.395500D-02
      7.495000D+00          -1.499810D-01
      2.797000D+00          -1.272620D-01
      5.215000D-01           5.445290D-01
      1.596000D-01           5.804960D-01
S   1   1.00
      1.596000D-01           1.000000D+00
S   1   1.00
      0.0469000              1.0000000
P   4   1.00
      9.439000D+00           3.810900D-02
      2.002000D+00           2.094800D-01
      5.456000D-01           5.085570D-01
      1.517000D-01           4.688420D-01
P   1   1.00
      1.517000D-01           1.000000D+00
P   1   1.00
      0.0404100              1.0000000
P    1  1.00
     0.0269400   1.0
P    1  1.00
     0.0179600   1.0
P    1  1.00
     0.0119733   1.0
P    1  1.00
     0.0079822   1.0
D   1   1.00
      5.500000D-01           1.0000000
D   1   1.00
      0.1510000              1.0000000
D    1  1.00
     0.0755000   1.0
****
C     2
S   9   1.00
      6.665000D+03           6.920000D-04
      1.000000D+03           5.329000D-03
      2.280000D+02           2.707700D-02
      6.471000D+01           1.017180D-01
      2.106000D+01           2.747400D-01
      7.495000D+00           4.485640D-01
      2.797000D+00           2.850740D-01
      5.215000D-01           1.520400D-02
      1.596000D-01          -3.191000D-03
S   9   1.00
      6.665000D+03          -1.460000D-04
      1.000000D+03          -1.154000D-03
      2.280000D+02          -5.725000D-03
      6.471000D+01          -2.331200D-02
      2.106000D+01          -6.395500D-02
      7.495000D+00          -1.499810D-01
      2.797000D+00          -1.272620D-01
      5.215000D-01           5.445290D-01
      1.596000D-01           5.804960D-01
S   1   1.00
      1.596000D-01           1.000000D+00
S   1   1.00
      0.0469000              1.0000000
P   4   1.00
      9.439000D+00           3.810900D-02
      2.002000D+00           2.094800D-01
      5.456000D-01           5.085570D-01
      1.517000D-01           4.688420D-01
P   1   1.00
      1.517000D-01           1.000000D+00
P   1   1.00
      0.0404100              1.0000000
P    1  1.00
     0.0269400   1.0
P    1  1.00
     0.0179600   1.0
P    1  1.00
     0.0119733   1.0
P    1  1.00
     0.0079822   1.0
D   1   1.00
      5.500000D-01           1.0000000
D   1   1.00
      0.1510000              1.0000000
D    1  1.00
     0.0755000   1.0
****
H     3
S   4   1.00
      1.301000D+01           1.968500D-02
      1.962000D+00           1.379770D-01
      4.446000D-01           4.781480D-01
      1.220000D-01           5.012400D-01
S   1   1.00
      1.220000D-01           1.000000D+00
P   1   1.00
      7.270000D-01           1.0000000
****
H     4
S   4   1.00
      1.301000D+01           1.968500D-02
      1.962000D+00           1.379770D-01
      4.446000D-01           4.781480D-01
      1.220000D-01           5.012400D-01
S   1   1.00
      1.220000D-01           1.000000D+00
P   1   1.00
      7.270000D-01           1.0000000
****
H     5
S   4   1.00
      1.301000D+01           1.968500D-02
      1.962000D+00           1.379770D-01
      4.446000D-01           4.781480D-01
      1.220000D-01           5.012400D-01
S   1   1.00
      1.220000D-01           1.000000D+00
P   1   1.00
      7.270000D-01           1.0000000
****
H     6
S   4   1.00
      1.301000D+01           1.968500D-02
      1.962000D+00           1.379770D-01
      4.446000D-01           4.781480D-01
      1.220000D-01           5.012400D-01
S   1   1.00
      1.220000D-01           1.000000D+00
P   1   1.00
      7.270000D-01           1.0000000
****
H     7
S    4   1.00
      1.301000D+01           1.968500D-02
      1.962000D+00           1.379770D-01
      4.446000D-01           4.781480D-01
      1.220000D-01           5.012400D-01
S    1   1.00
      1.220000D-01           1.000000D+00
S    1   1.00
      0.0297400              1.0000000
P    1   1.00
      7.270000D-01           1.0000000
P    1   1.00
      0.1410000              1.0000000
****
$end
--------------------------------------------------------------

             Standard Nuclear Orientation (Angstroms)
    I     Atom           X                Y                Z
 ----------------------------------------------------------------
    1      C      -0.6645000000     0.0000000000    -0.5882351765
    2      C       0.6645000000    -0.0000000000    -0.5882351765
    3      H      -1.1590800000     0.0000000000    -1.5505841765
    4      H       1.1590800000    -0.0000000000    -1.5505841765
    5      H      -1.1590800000     0.0000000000     0.3741128235
    6      H       1.1590800000    -0.0000000000     0.3741128235
    7      H       0.0000000000     0.0000000000     9.4117648235
 ----------------------------------------------------------------

   12     -78.4999341950      2.96E-09 Convergence criterion met
 Total energy in the final basis set = -78.49993420
  Term symbol:  1 (1) A2                                    R^2 =  1.36808e-15
  Excitation energy:                                               0.703181 eV
  Term symbol:  2 (1) A2                                    R^2 =  3.30684e-15
  Excitation energy:                                               1.477957 eV
  Term symbol:  3 (1) A2                                    R^2 =  2.01532e-15
  Excitation energy:                                               2.449503 eV
  Term symbol:  4 (1) A2                                    R^2 =  4.26706e-15
  Excitation energy:                                               3.418148 eV
  Term symbol:  5 (1) A2                                    R^2 =  4.68027e-13
  Excitation energy:                                               4.691171 eV
  Term symbol:  6 (1) A2                                    R^2 =  3.49167e-13
  Excitation energy:                                               5.362688 eV
  Term symbol:  7 (1) A2                                    R^2 =  5.20506e-13
  Excitation energy:                                               5.565564 eV
  Term symbol:  8 (1) A2                                    R^2 =  1.27591e-11
  Excitation energy:                                               6.852880 eV
  Term symbol:  9 (1) A2                                    R^2 =  2.20694e-10
  Excitation energy:                                               7.577571 eV
  Excited state 10 (singlet, A2)                                   [converged]
  Term symbol:  10 (1) A2                                   R^2 =  1.07518e-11
  Excitation energy:                                               7.665006 eV
  Excited state 11 (singlet, A2)                                   [converged]
  Term symbol:  11 (1) A2                                   R^2 =  1.15005e-10
  Excitation energy:                                               7.827727 eV
  Excited state 12 (singlet, A2)                                   [converged]
  Term symbol:  12 (1) A2                                   R^2 =  4.18195e-10
  Excitation energy:                                               7.898194 eV
  Excited state 13 (singlet, A2)                                   [converged]
  Term symbol:  13 (1) A2                                   R^2 =  6.93629e-10
  Excitation energy:                                               8.070110 eV
  Excited state 14 (singlet, A2)                                   [converged]
  Term symbol:  14 (1) A2                                   R^2 =  2.40007e-09
  Excitation energy:                                               8.133998 eV
  Excited state 15 (singlet, A2)                                   [converged]
  Term symbol:  15 (1) A2                                   R^2 =  4.72770e-09
  Excitation energy:                                               8.301475 eV
  Excited state 16 (singlet, A2)                                   [converged]
  Term symbol:  16 (1) A2                                   R^2 =  1.66770e-09
  Excitation energy:                                               8.366102 eV
  Excited state 17 (singlet, A2)                                   [converged]
  Excitation energy:                                               0.493979 eV
  Excitation energy:                                               0.388623 eV
  Excitation energy:                                               0.353980 eV
  Excitation energy:                                               0.317312 eV
  Excitation energy:                                               0.264194 eV
  Excitation energy:                                               0.238293 eV
  Excitation energy:                                               0.128851 eV
  Excitation energy:                                               0.107908 eV
  Excitation energy:                                               0.054051 eV
  Excitation energy:                                               0.024926 eV
  Excitation energy:                                               0.012791 eV
  Excitation energy:                                               8.289701 eV
  Excitation energy:                                               7.514925 eV
  Excitation energy:                                               6.543380 eV
  Excitation energy:                                               5.574735 eV
  Excitation energy:                                               4.301712 eV
  Excitation energy:                                               3.630195 eV
  Excitation energy:                                               3.427318 eV
  Excitation energy:                                               2.140003 eV
  Excitation energy:                                               1.415312 eV
  Excitation energy:                                               1.327877 eV
  Excitation energy:                                               1.165156 eV
  Excitation energy:                                               1.094689 eV
  Excitation energy:                                               0.922773 eV
  Excitation energy:                                               0.858884 eV
  Excitation energy:                                               0.691408 eV
  Excitation energy:                                               0.626780 eV
  Excitation energy:                                               0.583748 eV
  Excitation energy:                                               0.528004 eV
  Excitation energy:                                               0.422648 eV
  Excitation energy:                                               0.388005 eV
  Excitation energy:                                               0.351337 eV
  Excitation energy:                                               0.298219 eV
  Excitation energy:                                               0.272318 eV
  Excitation energy:                                               0.162876 eV
  Excitation energy:                                               0.141933 eV
  Excitation energy:                                               0.088075 eV
  Excitation energy:                                               0.058950 eV
  Excitation energy:                                               0.046816 eV
  Excitation energy:                                               0.034025 eV

             Orbital Energies (a.u.) and Symmetries
 --------------------------------------------------------------

 Alpha MOs, Restricted
 -- Occupied --
-11.183 -11.181  -0.988  -0.728  -0.607  -0.514  -0.461  -0.323
  1 A1    1 B1    2 A1    2 B1    3 A1    4 A1    3 B1    1 B2
 -0.023
  5 A1

 Beta MOs, Restricted
 -- Occupied --
-11.183 -11.181  -0.988  -0.728  -0.607  -0.514  -0.461  -0.323
  1 A1    1 B1    2 A1    2 B1    3 A1    4 A1    3 B1    1 B2
 -0.023
  5 A1

          Ground-State Mulliken Net Atomic Charges

     Atom                 Charge (a.u.)
  ----------------------------------------
      1 C                    -0.211185
      2 C                    -0.211185
      3 H                     0.032634
      4 H                     0.032634
      5 H                     0.048947
      6 H                     0.048947
      7 H                    -0.740794
  ----------------------------------------
  Sum of atomic charges =    -1.000000

                    Cartesian Multipole Moments
 -----------------------------------------------------------------
    Charge (ESU x 10^10)
                -4.8032
    Dipole Moment (Debye)
         X      -0.0000      Y      -0.0000      Z     -37.2246
       Tot      37.2246
    Quadrupole Moments (Debye-Ang)
        XX     -38.1434     XY       0.0000     YY     -37.5749
        XZ       0.0000     YZ       0.0000     ZZ    -410.3418

 Total job time:  1312.78s(wall), 7392.82s(cpu)
        *  Thank you very much for using Q-Chem.  Have a nice day.  *
