 Q-Chem 5.4 (devel), Q-Chem, Inc., Pleasanton, CA (2021)
 Q-Chem 5.4.1 for Intel X86 EM64T Linux

User input:
--------------------------------------------------------------
$molecule
-1 1
C        -0.6645000000    0.0000000000   -0.2082049804
C         0.6645000000    0.0000000000   -0.2082049804
H        -1.1590800000    0.0000000000    0.7541440196
H         1.1590800000    0.0000000000    0.7541440196
H        -1.1590800000    0.0000000000   -1.1705529804
H         1.1590800000    0.0000000000   -1.1705529804
O         0.0000000000    0.0000000000    9.792
H         0.0000000000    0.0000000000    10.792
$end

$rem
   JOBTYPE opt
   METHOD MP2
   BASIS gen
   PURECART 11
   THRESH 14
   S2THRESH 14
   THREADS 10
   MEM_TOTAL 95000
$end
$basis
C     1
cc-pvtz
****
C     2
cc-pvtz
****
H     3
cc-pvtz
****
H     4
cc-pvtz
****
H     5
cc-pvtz
****
H     6
cc-pvtz
****
O     7
aug-cc-pvtz
****
H     8
aug-cc-pvtz
****
$end
$opt
FIXED
1 xyz
2 xyz
3 xyz
4 xyz
5 xyz
6 xyz
7 xyz
ENDFIXED
$end
--------------------------------------------------------------

   12    -153.4693962544      2.92e-09  Convergence criterion met
 Total energy in the final basis set =     -153.4693962544
        MP2         total energy =                  -154.09631088 au
   11    -153.4707257461      2.05e-09  Convergence criterion met
 Total energy in the final basis set =     -153.4707257461
        MP2         total energy =                  -154.09697144 au
   11    -153.4717802442      1.96e-09  Convergence criterion met
 Total energy in the final basis set =     -153.4717802442
        MP2         total energy =                  -154.09725009 au

             Standard Nuclear Orientation (Angstroms)
    I     Atom           X                Y                Z
 ----------------------------------------------------------------
    1      C      -0.6645000000     0.0000000000     3.6359527982
    2      C       0.6645000000     0.0000000000     3.6359527982
    3      H      -1.1590800000     0.0000000000     2.6736037982
    4      H       1.1590800000     0.0000000000     2.6736037982
    5      H      -1.1590800000     0.0000000000     4.5983007982
    6      H       1.1590800000     0.0000000000     4.5983007982
    7      O       0.0000000000     0.0000000000    -6.3642521822
    8      H       0.0000000000     0.0000000000    -7.3312835846
 ----------------------------------------------------------------

   10    -153.4717966602      8.80e-09  Convergence criterion met
 Total energy in the final basis set =     -153.4717966602
        MP2         total energy =                  -154.09725024 au
 Final energy is   -154.097250235839
 **  OPTIMIZATION CONVERGED  **

             Orbital Energies (a.u.) and Symmetries
 --------------------------------------------------------------

 Alpha MOs, Restricted
 -- Occupied --
-20.188 -11.172 -11.170  -0.984  -0.902  -0.726  -0.605  -0.512
  1 A1    2 A1    1 B1    3 A1    4 A1    2 B1    5 A1    6 A1
 -0.461  -0.323  -0.251  -0.109  -0.109
  3 B1    1 B2    7 A1    2 B2    4 B1

 Beta MOs, Restricted
 -- Occupied --
-20.188 -11.172 -11.170  -0.984  -0.902  -0.726  -0.605  -0.512
  1 A1    2 A1    1 B1    3 A1    4 A1    2 B1    5 A1    6 A1
 -0.461  -0.323  -0.251  -0.109  -0.109
  3 B1    1 B2    7 A1    2 B2    4 B1

          Ground-State Mulliken Net Atomic Charges

     Atom                 Charge (a.u.)
  ----------------------------------------
      1 C                    -0.305420
      2 C                    -0.305420
      3 H                     0.163634
      4 H                     0.163634
      5 H                     0.141786
      6 H                     0.141786
      7 O                    -1.151675
      8 H                     0.151675
  ----------------------------------------
  Sum of atomic charges =    -1.000000

                    Cartesian Multipole Moments
 -----------------------------------------------------------------
    Charge (ESU x 10^10)
                -4.8032
    Dipole Moment (Debye)
         X       0.0000      Y       0.0000      Z      29.3802
       Tot      29.3802
    Quadrupole Moments (Debye-Ang)
        XX     -24.3218     XY       0.0000     YY     -26.9261
        XZ      -0.0000     YZ      -0.0000     ZZ    -202.7693

 Total job time:  77.41s(wall), 430.18s(cpu)
        *  Thank you very much for using Q-Chem.  Have a nice day.  *
