 Q-Chem 5.4 (devel), Q-Chem, Inc., Pleasanton, CA (2021)
 Q-Chem 5.4.1 for Intel X86 EM64T Linux

User input:
--------------------------------------------------------------
$molecule
-1 1
C        -0.6645000000    0.0000000000   -0.2082049804
C         0.6645000000    0.0000000000   -0.2082049804
H        -1.1590800000    0.0000000000    0.7541440196
H         1.1590800000    0.0000000000    0.7541440196
H        -1.1590800000    0.0000000000   -1.1705529804
H         1.1590800000    0.0000000000   -1.1705529804
O         0.0000000000    0.0000000000    10.792
H         0.0000000000    0.0000000000    9.792
$end

$rem
   JOBTYPE opt
   METHOD MP2
   BASIS gen
   PURECART 11
   THRESH 14
   S2THRESH 14
   THREADS 10
   MEM_TOTAL 95000
$end
$basis
C     1
cc-pvtz
****
C     2
cc-pvtz
****
H     3
cc-pvtz
****
H     4
cc-pvtz
****
H     5
cc-pvtz
****
H     6
cc-pvtz
****
O     7
aug-cc-pvtz
****
H     8
aug-cc-pvtz
****
$end
$opt
FIXED
1 xyz
2 xyz
3 xyz
4 xyz
5 xyz
6 xyz
7 xyz
ENDFIXED
$end
--------------------------------------------------------------

   12    -153.4692659345      2.84e-09  Convergence criterion met
 Total energy in the final basis set =     -153.4692659345
        MP2         total energy =                  -154.09618549 au
   11    -153.4705935884      2.04e-09  Convergence criterion met
 Total energy in the final basis set =     -153.4705935884
        MP2         total energy =                  -154.09684508 au
   11    -153.4716468495      1.96e-09  Convergence criterion met
 Total energy in the final basis set =     -153.4716468495
        MP2         total energy =                  -154.09712335 au

             Standard Nuclear Orientation (Angstroms)
    I     Atom           X                Y                Z
 ----------------------------------------------------------------
    1      C      -0.6645000000     0.0000000000     3.9241922198
    2      C       0.6645000000     0.0000000000     3.9241922198
    3      H      -1.1590800000     0.0000000000     2.9618432198
    4      H       1.1590800000     0.0000000000     2.9618432198
    5      H      -1.1590800000     0.0000000000     4.8865402198
    6      H       1.1590800000     0.0000000000     4.8865402198
    7      O       0.0000000000     0.0000000000    -7.0760127606
    8      H       0.0000000000     0.0000000000    -6.1089595358
 ----------------------------------------------------------------

   10    -153.4716633070      8.74e-09  Convergence criterion met
 Total energy in the final basis set =     -153.4716633070
        MP2         total energy =                  -154.09712350 au
 Final energy is   -154.097123500505
 **  OPTIMIZATION CONVERGED  **

             Orbital Energies (a.u.) and Symmetries
 --------------------------------------------------------------

 Alpha MOs, Restricted
 -- Occupied --
-20.187 -11.179 -11.177  -0.991  -0.902  -0.733  -0.612  -0.519
  1 A1    2 A1    1 B1    3 A1    4 A1    2 B1    5 A1    6 A1
 -0.468  -0.330  -0.251  -0.109  -0.109
  3 B1    1 B2    7 A1    4 B1    2 B2

 Beta MOs, Restricted
 -- Occupied --
-20.187 -11.179 -11.177  -0.991  -0.902  -0.733  -0.612  -0.519
  1 A1    2 A1    1 B1    3 A1    4 A1    2 B1    5 A1    6 A1
 -0.468  -0.330  -0.251  -0.109  -0.109
  3 B1    1 B2    7 A1    4 B1    2 B2

          Ground-State Mulliken Net Atomic Charges

     Atom                 Charge (a.u.)
  ----------------------------------------
      1 C                    -0.304599
      2 C                    -0.304599
      3 H                     0.160665
      4 H                     0.160665
      5 H                     0.143934
      6 H                     0.143934
      7 O                    -1.151273
      8 H                     0.151273
  ----------------------------------------
  Sum of atomic charges =    -1.000000

                    Cartesian Multipole Moments
 -----------------------------------------------------------------
    Charge (ESU x 10^10)
                -4.8032
    Dipole Moment (Debye)
         X       0.0000      Y       0.0000      Z      34.8820
       Tot      34.8820
    Quadrupole Moments (Debye-Ang)
        XX     -24.3158     XY       0.0000     YY     -26.9239
        XZ       0.0000     YZ      -0.0000     ZZ    -275.9872

 Total job time:  76.21s(wall), 423.64s(cpu)
        *  Thank you very much for using Q-Chem.  Have a nice day.  *
