 Q-Chem 5.4 (devel), Q-Chem, Inc., Pleasanton, CA (2021)
 Q-Chem 5.4.1 for Intel X86 EM64T Linux

User input:
--------------------------------------------------------------
$molecule
-1 1
C        -0.6645000000    0.0000000000   -0.2082049804
C         0.6645000000    0.0000000000   -0.2082049804
H        -1.1590800000    0.0000000000    0.7541440196
H         1.1590800000    0.0000000000    0.7541440196
H        -1.1590800000    0.0000000000   -1.1705529804
H         1.1590800000    0.0000000000   -1.1705529804
O         0.0000000000    0.0000000000    4.792
H         0.0000000000    0.0000000000    3.792
$end

$rem
   JOBTYPE opt
   METHOD MP2
   BASIS gen
   PURECART 11
   THRESH 14
   S2THRESH 14
   THREADS 10
   MEM_TOTAL 95000
$end
$basis
C     1
cc-pvtz
****
C     2
cc-pvtz
****
H     3
cc-pvtz
****
H     4
cc-pvtz
****
H     5
cc-pvtz
****
H     6
cc-pvtz
****
O     7
aug-cc-pvtz
****
H     8
aug-cc-pvtz
****
$end
$opt
FIXED
1 xyz
2 xyz
3 xyz
4 xyz
5 xyz
6 xyz
7 xy
ENDFIXED
$end
--------------------------------------------------------------

   12    -153.4715126690      3.25e-09  Convergence criterion met
 Total energy in the final basis set =     -153.4715126690
        MP2         total energy =                  -154.09883165 au
   11    -153.4737995803      5.83e-09  Convergence criterion met
 Total energy in the final basis set =     -153.4737995803
        MP2         total energy =                  -154.09976120 au
   11    -153.4739275418      5.47e-09  Convergence criterion met
 Total energy in the final basis set =     -153.4739275418
        MP2         total energy =                  -154.09976702 au
   11    -153.4739184432      5.13e-09  Convergence criterion met
 Total energy in the final basis set =     -153.4739184432
        MP2         total energy =                  -154.09976756 au
   11    -153.4738741417      4.98e-09  Convergence criterion met
 Total energy in the final basis set =     -153.4738741417
        MP2         total energy =                  -154.09977089 au
 Total energy in the final basis set =     -153.4729630102
        MP2         total energy =                  -154.10164001 au
   11    -153.4751760761      7.72e-09  Convergence criterion met
 Total energy in the final basis set =     -153.4751760761
        MP2         total energy =                  -154.10239277 au
   11    -153.4746430475      4.89e-09  Convergence criterion met
 Total energy in the final basis set =     -153.4746430475
        MP2         total energy =                  -154.10251865 au
   11    -153.4745426330      4.23e-09  Convergence criterion met
 Total energy in the final basis set =     -153.4745426330
        MP2         total energy =                  -154.10252090 au

             Standard Nuclear Orientation (Angstroms)
    I     Atom           X                Y                Z
 ----------------------------------------------------------------
    1      C      -0.6645000000     0.0000000000     1.4372990508
    2      C       0.6645000000     0.0000000000     1.4372990508
    3      H      -1.1590800000     0.0000000000     0.4749500508
    4      H       1.1590800000     0.0000000000     0.4749500508
    5      H      -1.1590800000     0.0000000000     2.3996470508
    6      H       1.1590800000     0.0000000000     2.3996470508
    7      O       0.0000000000     0.0000000000    -2.2541610168
    8      H       0.0000000000     0.0000000000    -1.2894522650
 ----------------------------------------------------------------

   11    -153.4745409511      5.17e-09  Convergence criterion met
 Total energy in the final basis set =     -153.4745409511
        MP2         total energy =                  -154.10252104 au
 Final energy is   -154.102521044616
 **  OPTIMIZATION CONVERGED  **

             Orbital Energies (a.u.) and Symmetries
 --------------------------------------------------------------

 Alpha MOs, Restricted
 -- Occupied --
-20.196 -11.097 -11.096  -0.915  -0.908  -0.653  -0.531  -0.439
  1 A1    2 A1    1 B1    3 A1    4 A1    2 B1    5 A1    6 A1
 -0.386  -0.261  -0.250  -0.119  -0.119
  3 B1    7 A1    1 B2    2 B2    4 B1

 Beta MOs, Restricted
 -- Occupied --
-20.196 -11.097 -11.096  -0.915  -0.908  -0.653  -0.531  -0.439
  1 A1    2 A1    1 B1    3 A1    4 A1    2 B1    5 A1    6 A1
 -0.386  -0.261  -0.250  -0.119  -0.119
  3 B1    7 A1    1 B2    2 B2    4 B1

          Ground-State Mulliken Net Atomic Charges

     Atom                 Charge (a.u.)
  ----------------------------------------
      1 C                    -0.314051
      2 C                    -0.314051
      3 H                     0.186980
      4 H                     0.186980
      5 H                     0.112290
      6 H                     0.112290
      7 O                    -1.154519
      8 H                     0.184082
  ----------------------------------------
  Sum of atomic charges =    -1.000000

                    Cartesian Multipole Moments
 -----------------------------------------------------------------
    Charge (ESU x 10^10)
                -4.8032
    Dipole Moment (Debye)
         X      -0.0000      Y      -0.0000      Z      10.7921
       Tot      10.7921
    Quadrupole Moments (Debye-Ang)
        XX     -24.3990     XY      -0.0000     YY     -26.8291
        XZ       0.0000     YZ       0.0000     ZZ     -50.6422

 Total job time:  821.42s(wall), 4209.89s(cpu)
        *  Thank you very much for using Q-Chem.  Have a nice day.  *
