 Q-Chem 5.4 (devel), Q-Chem, Inc., Pleasanton, CA (2021)
 Q-Chem 5.4.1 for Intel X86 EM64T Linux

User input:
--------------------------------------------------------------
$molecule
-1 1
C        -0.6645000000    0.0000000000   -0.2082049804
C         0.6645000000    0.0000000000   -0.2082049804
H        -1.1590800000    0.0000000000    0.7541440196
H         1.1590800000    0.0000000000    0.7541440196
H        -1.1590800000    0.0000000000   -1.1705529804
H         1.1590800000    0.0000000000   -1.1705529804
O         0.0000000000    0.0000000000    3.792
H         0.0000000000    0.0000000000    4.792
$end

$rem
   JOBTYPE opt
   METHOD MP2
   BASIS gen
   PURECART 11
   THRESH 14
   S2THRESH 14
   THREADS 10
   MEM_TOTAL 95000
$end
$basis
C     1
cc-pvtz
****
C     2
cc-pvtz
****
H     3
cc-pvtz
****
H     4
cc-pvtz
****
H     5
cc-pvtz
****
H     6
cc-pvtz
****
O     7
aug-cc-pvtz
****
H     8
aug-cc-pvtz
****
$end
$opt
FIXED
1 xyz
2 xyz
3 xyz
4 xyz
5 xyz
6 xyz
7 xy
ENDFIXED
$end
--------------------------------------------------------------

   12    -153.4759099247      5.80e-09  Convergence criterion met
 Total energy in the final basis set =     -153.4759099247
        MP2         total energy =                  -154.10337360 au
   11    -153.4781311263      2.91e-09  Convergence criterion met
 Total energy in the final basis set =     -153.4781311263
        MP2         total energy =                  -154.10425581 au
   11    -153.4782666279      2.49e-09  Convergence criterion met
 Total energy in the final basis set =     -153.4782666279
        MP2         total energy =                  -154.10426597 au
   11    -153.4782895340      2.46e-09  Convergence criterion met
 Total energy in the final basis set =     -153.4782895340
        MP2         total energy =                  -154.10427163 au
   11    -153.4786221257      2.40e-09  Convergence criterion met
 Total energy in the final basis set =     -153.4786221257
        MP2         total energy =                  -154.10436337 au
 Total energy in the final basis set =     -153.4824604228
        MP2         total energy =                  -154.10815702 au
   11    -153.4826933259      2.51e-09  Convergence criterion met
 Total energy in the final basis set =     -153.4826933259
        MP2         total energy =                  -154.10936651 au
   11    -153.4823425463      3.04e-09  Convergence criterion met
 Total energy in the final basis set =     -153.4823425463
        MP2         total energy =                  -154.11091346 au
   11    -153.4820551958      3.67e-09  Convergence criterion met
 Total energy in the final basis set =     -153.4820551958
        MP2         total energy =                  -154.11095656 au

             Standard Nuclear Orientation (Angstroms)
    I     Atom           X                Y                Z
 ----------------------------------------------------------------
    1      C      -0.6645000000     0.0000000000     1.2133488768
    2      C       0.6645000000     0.0000000000     1.2133488768
    3      H      -1.1590800000     0.0000000000     0.2509998768
    4      H       1.1590800000     0.0000000000     0.2509998768
    5      H      -1.1590800000     0.0000000000     2.1756968768
    6      H       1.1590800000     0.0000000000     2.1756968768
    7      O       0.0000000000     0.0000000000    -1.7369275162
    8      H       0.0000000000     0.0000000000    -2.7029847216
 ----------------------------------------------------------------

   11    -153.4820121227      3.68e-09  Convergence criterion met
 Total energy in the final basis set =     -153.4820121227
        MP2         total energy =                  -154.11095716 au
 Final energy is   -154.110957155807
 **  OPTIMIZATION CONVERGED  **

             Orbital Energies (a.u.) and Symmetries
 --------------------------------------------------------------

 Alpha MOs, Restricted
 -- Occupied --
-20.201 -11.048 -11.046  -0.922  -0.860  -0.605  -0.480  -0.392
  1 A1    2 A1    1 B1    3 A1    4 A1    2 B1    5 A1    6 A1
 -0.336  -0.269  -0.203  -0.128  -0.127
  3 B1    7 A1    1 B2    4 B1    2 B2

 Beta MOs, Restricted
 -- Occupied --
-20.201 -11.048 -11.046  -0.922  -0.860  -0.605  -0.480  -0.392
  1 A1    2 A1    1 B1    3 A1    4 A1    2 B1    5 A1    6 A1
 -0.336  -0.269  -0.203  -0.128  -0.127
  3 B1    7 A1    1 B2    4 B1    2 B2

          Ground-State Mulliken Net Atomic Charges

     Atom                 Charge (a.u.)
  ----------------------------------------
      1 C                    -0.320478
      2 C                    -0.320478
      3 H                     0.233233
      4 H                     0.233233
      5 H                     0.089330
      6 H                     0.089330
      7 O                    -1.158284
      8 H                     0.154115
  ----------------------------------------
  Sum of atomic charges =    -1.000000

                    Cartesian Multipole Moments
 -----------------------------------------------------------------
    Charge (ESU x 10^10)
                -4.8032
    Dipole Moment (Debye)
         X      -0.0000      Y       0.0000      Z       5.6903
       Tot       5.6903
    Quadrupole Moments (Debye-Ang)
        XX     -24.7532     XY       0.0000     YY     -26.8753
        XZ      -0.0000     YZ       0.0000     ZZ     -34.2175

 Total job time:  681.34s(wall), 3491.84s(cpu)
        *  Thank you very much for using Q-Chem.  Have a nice day.  *
