 Q-Chem 5.4 (devel), Q-Chem, Inc., Pleasanton, CA (2021)
 Q-Chem 5.4.1 for Intel X86 EM64T Linux

User input:
--------------------------------------------------------------
#ethylene geometry from CRC Handbook 102nd Edition
$molecule
-1 1
C        -0.6645000000    0.0000000000   -0.1764707059
C         0.6645000000    0.0000000000   -0.1764707059
H        -1.1590800000    0.0000000000    0.7858782941
H         1.1590800000    0.0000000000    0.7858782941
H        -1.1590800000    0.0000000000   -1.1388187059
H         1.1590800000    0.0000000000   -1.1388187059
H         0.0000000000    0.0000000000    2.8235292941
$end

$rem
   METHOD hf
   BASIS sto-3g
   MAKE_CUBE_FILES    true
$end

$plots
   Plot the HOMO and the LUMO on a line
  200  -3.0   3.0
  200  -3.0   3.0
  400  -3.0   6.0
   1   0   0   0
   9
$end
--------------------------------------------------------------

             Standard Nuclear Orientation (Angstroms)
    I     Atom           X                Y                Z
 ----------------------------------------------------------------
    1      C      -0.6645000000    -0.0000000000    -0.1764707059
    2      C       0.6645000000     0.0000000000    -0.1764707059
    3      H      -1.1590800000    -0.0000000000     0.7858782941
    4      H       1.1590800000     0.0000000000     0.7858782941
    5      H      -1.1590800000    -0.0000000000    -1.1388187059
    6      H       1.1590800000     0.0000000000    -1.1388187059
    7      H       0.0000000000     0.0000000000     2.8235292941
 ----------------------------------------------------------------

    6     -77.2398693140      3.55e-06  Convergence criterion met
 Total energy in the final basis set =      -77.2398693140

             Orbital Energies (a.u.) and Symmetries
 --------------------------------------------------------------

 Alpha MOs, Restricted
 -- Occupied --
-10.825 -10.824  -0.799  -0.556  -0.432  -0.331  -0.284  -0.144
  1 A1    1 B1    2 A1    2 B1    3 A1    4 A1    3 B1    1 B2
  0.279
  5 A1

 Beta MOs, Restricted
 -- Occupied --
-10.825 -10.824  -0.799  -0.556  -0.432  -0.331  -0.284  -0.144
  1 A1    1 B1    2 A1    2 B1    3 A1    4 A1    3 B1    1 B2
  0.279
  5 A1

          Ground-State Mulliken Net Atomic Charges

     Atom                 Charge (a.u.)
  ----------------------------------------
      1 C                    -0.149624
      2 C                    -0.149624
      3 H                     0.112525
      4 H                     0.112525
      5 H                     0.013369
      6 H                     0.013369
      7 H                    -0.952541
  ----------------------------------------
  Sum of atomic charges =    -1.000000

                    Cartesian Multipole Moments
 -----------------------------------------------------------------
    Charge (ESU x 10^10)
                -4.8032
    Dipole Moment (Debye)
         X       0.0000      Y      -0.0000      Z     -12.2058
       Tot      12.2058
    Quadrupole Moments (Debye-Ang)
        XX     -14.3619     XY      -0.0000     YY     -15.2286
        XZ      -0.0000     YZ      -0.0000     ZZ     -50.0930

 Total job time:  8.38s(wall), 8.35s(cpu)
        *  Thank you very much for using Q-Chem.  Have a nice day.  *
