 Q-Chem 5.4 (devel), Q-Chem, Inc., Pleasanton, CA (2021)
 Q-Chem 5.4.1 for Intel X86 EM64T Linux

User input:
--------------------------------------------------------------
#ethylene geometry from CRC Handbook 102nd Edition
$molecule
-1 1
O         0.0000000000    0.0000000000   -1.5841414040
H         0.0000000000    0.0000000000   -2.5471307683
$end

$rem
   BASIS gen
   METHOD adc(2)
   IP_STATES [0,0,5,0]
   scf_convergence 8
   adc_nguess_singles 10
   THRESH 14
   S2THRESH 14
   adc_davidson_conv 5
   adc_davidson_thresh 14
   THREADS 4
   MEM_TOTAL 95000
   STATE_ANALYSIS TRUE
$end

$basis
O 1
aug-cc-pvdz
****
H 2
aug-cc-pvdz
****
$end
--------------------------------------------------------------

             Standard Nuclear Orientation (Angstroms)
    I     Atom           X                Y                Z
 ----------------------------------------------------------------
    1      O       0.0000000000     0.0000000000     0.1069988183
    2      H       0.0000000000     0.0000000000    -0.8559905460
 ----------------------------------------------------------------

   12     -75.3959227723      1.23E-09 Convergence criterion met
 Total energy in the final basis set = -75.39592277
  Term symbol:  1 (2) B1                                    R^2 =  3.81704e-11
  Term symbol:  2 (2) B1                                    R^2 =  3.19794e-15
  Term symbol:  3 (2) B1                                    R^2 =  1.14387e-15
  Term symbol:  4 (2) B1                                    R^2 =  1.25527e-14
  Term symbol:  5 (2) B1                                    R^2 =  2.21174e-14

             Orbital Energies (a.u.) and Symmetries
 --------------------------------------------------------------

 Alpha MOs, Restricted
 -- Occupied --
-20.197  -0.906  -0.252  -0.108  -0.108
  1 A1    2 A1    3 A1    1 B1    1 B2

 Beta MOs, Restricted
 -- Occupied --
-20.197  -0.906  -0.252  -0.108  -0.108
  1 A1    2 A1    3 A1    1 B1    1 B2

          Ground-State Mulliken Net Atomic Charges

     Atom                 Charge (a.u.)
  ----------------------------------------
      1 O                    -0.982964
      2 H                    -0.017036
  ----------------------------------------
  Sum of atomic charges =    -1.000000

                    Cartesian Multipole Moments
 -----------------------------------------------------------------
    Charge (ESU x 10^10)
                -4.8032
    Dipole Moment (Debye)
         X      -0.0000      Y       0.0000      Z      -1.5372
       Tot       1.5372
    Quadrupole Moments (Debye-Ang)
        XX     -10.0076     XY       0.0000     YY     -10.0076
        XZ       0.0000     YZ      -0.0000     ZZ      -7.7900

 Total job time:  82.37s(wall), 34.93s(cpu)
        *  Thank you very much for using Q-Chem.  Have a nice day.  *
