 Q-Chem 5.4 (devel), Q-Chem, Inc., Pleasanton, CA (2021)
 Q-Chem 5.4.1 for Intel X86 EM64T Linux

User input:
--------------------------------------------------------------
#ethylene geometry from CRC Handbook 102nd Edition
$molecule
-1 1
O         0.0000000000    0.0000000000   -1.5841414040
H         0.0000000000    0.0000000000   -2.5471307683
$end

$rem
   METHOD hf
   PRINT_ORBITALS TRUE
   BASIS sto-3g
$end

--------------------------------------------------------------

             Standard Nuclear Orientation (Angstroms)
    I     Atom           X                Y                Z
 ----------------------------------------------------------------
    1      O       0.0000000000     0.0000000000     0.1069988183
    2      H       0.0000000000     0.0000000000    -0.8559905460
 ----------------------------------------------------------------

    6     -74.0561394158      2.18e-07  Convergence criterion met
 Total energy in the final basis set =      -74.0561394158

                    Orbital Energies (a.u.)
 --------------------------------------------------------------

 Alpha MOs
 -- Occupied --
-19.3756  -0.5942   0.0729   0.2521   0.2521

          Ground-State Mulliken Net Atomic Charges

     Atom                 Charge (a.u.)
  ----------------------------------------
      1 O                    -0.816934
      2 H                    -0.183066
  ----------------------------------------
  Sum of atomic charges =    -1.000000

                    Cartesian Multipole Moments
 -----------------------------------------------------------------
    Charge (ESU x 10^10)
                -4.8032
    Dipole Moment (Debye)
         X       0.0000      Y      -0.0000      Z      -0.3026
       Tot       0.3026
    Quadrupole Moments (Debye-Ang)
        XX      -5.9333     XY      -0.0000     YY      -5.9333
        XZ       0.0000     YZ       0.0000     ZZ      -6.0612

 Total job time:  0.08s(wall), 0.06s(cpu)
        *  Thank you very much for using Q-Chem.  Have a nice day.  *
