 Q-Chem 5.4 (devel), Q-Chem, Inc., Pleasanton, CA (2021)
 Q-Chem 5.4.1 for Intel X86 EM64T Linux

User input:
--------------------------------------------------------------
$molecule
-1 1
C       0.000000      0.664500   -0.176471
C       0.000000     -0.664500   -0.176471
H       0.000000      1.159080    0.785878
H       0.000000     -1.159080    0.785878
H       0.000000      1.159080   -1.138819
H       0.000000     -1.159080   -1.138819
H       0.000000      0.000000    2.823529
$end

$rem
   JOBTYPE opt
   METHOD MP2
   BASIS gen
   PURECART 11
   SCF_ALGORITHM GDM
   THRESH 14
   S2THRESH 14
   THREADS 10
   MEM_TOTAL 95000
$end
$basis
H     0
aug-cc-pvtz
****
C     0
S   10   1.00
      8.236000D+03           5.310000D-04
      1.235000D+03           4.108000D-03
      2.808000D+02           2.108700D-02
      7.927000D+01           8.185300D-02
      2.559000D+01           2.348170D-01
      8.997000D+00           4.344010D-01
      3.319000D+00           3.461290D-01
      9.059000D-01           3.937800D-02
      3.643000D-01          -8.983000D-03
      1.285000D-01           2.385000D-03
S   1   1.00
      9.059000D-01           1.000000D+00
S   10   1.00
      8.236000D+03          -1.130000D-04
      1.235000D+03          -8.780000D-04
      2.808000D+02          -4.540000D-03
      7.927000D+01          -1.813300D-02
      2.559000D+01          -5.576000D-02
      8.997000D+00          -1.268950D-01
      3.319000D+00          -1.703520D-01
      9.059000D-01           1.403820D-01
      3.643000D-01           5.986840D-01
      1.285000D-01           3.953890D-01
S   1   1.00
      1.285000D-01           1.000000D+00
S   1   1.00
      0.0440200              1.0000000
P   1   1.00
      3.827000D-01           1.000000D+00
P   5   1.00
      1.871000D+01           1.403100D-02
      4.133000D+00           8.686600D-02
      1.200000D+00           2.902160D-01
      3.827000D-01           5.010080D-01
      1.209000D-01           3.434060D-01
P   1   1.00
      1.209000D-01           1.000000D+00
P   1   1.00
      0.0356900              1.0000000
D   1   1.00
      1.097000D+00           1.000000D+00
D   1   1.00
      3.180000D-01           1.000000D+00
D   1   1.00
      0.1000000              1.0000000
F   1   1.00
      7.610000D-01           1.0000000
F   1   1.00
      0.2680000              1.0000000
****
$end

$opt
FIXED
1 xyz
2 xyz
3 xyz
4 xyz
5 xyz
6 xyz
7 xy
ENDFIXED
$end
--------------------------------------------------------------

   13     -78.5497284337      3.85e-09  Convergence criterion met
 Total energy in the final basis set =      -78.5497284337
        MP2         total energy =                   -78.92476532 au
   11     -78.5497417376      6.10e-09  Convergence criterion met
 Total energy in the final basis set =      -78.5497417376
        MP2         total energy =                   -78.92476975 au
   11     -78.5510614077      6.00e-09  Convergence criterion met
 Total energy in the final basis set =      -78.5510614077
        MP2         total energy =                   -78.92511039 au
   11     -78.5514644614      5.73e-09  Convergence criterion met
 Total energy in the final basis set =      -78.5514644614
        MP2         total energy =                   -78.92515766 au
   11     -78.5516266772      5.64e-09  Convergence criterion met
 Total energy in the final basis set =      -78.5516266772
        MP2         total energy =                   -78.92516465 au

             Standard Nuclear Orientation (Angstroms)
    I     Atom           X                Y                Z
 ----------------------------------------------------------------
    1      C      -0.6645000000     0.0000000000    -0.2082049804
    2      C       0.6645000000     0.0000000000    -0.2082049804
    3      H      -1.1590800000     0.0000000000     0.7541440196
    4      H       1.1590800000     0.0000000000     0.7541440196
    5      H      -1.1590800000     0.0000000000    -1.1705529804
    6      H       1.1590800000     0.0000000000    -1.1705529804
    7      H       0.0000000000     0.0000000000     3.0139349415
 ----------------------------------------------------------------

   11     -78.5516679395      5.64e-09  Convergence criterion met
 Total energy in the final basis set =      -78.5516679395
        MP2         total energy =                   -78.92516507 au
 Final energy is   -78.9251650688815
 **  OPTIMIZATION CONVERGED  **

             Orbital Energies (a.u.) and Symmetries
 --------------------------------------------------------------

 Alpha MOs, Restricted
 -- Occupied --
-11.076 -11.075  -0.888  -0.632  -0.508  -0.419  -0.363  -0.228
  1 A1    1 B1    2 A1    2 B1    3 A1    4 A1    3 B1    1 B2
 -0.052
  5 A1

 Beta MOs, Restricted
 -- Occupied --
-11.076 -11.075  -0.888  -0.632  -0.508  -0.419  -0.363  -0.228
  1 A1    1 B1    2 A1    2 B1    3 A1    4 A1    3 B1    1 B2
 -0.052
  5 A1

          Ground-State Mulliken Net Atomic Charges

     Atom                 Charge (a.u.)
  ----------------------------------------
      1 C                    -0.893348
      2 C                    -0.893348
      3 H                     0.525762
      4 H                     0.525762
      5 H                     0.356902
      6 H                     0.356902
      7 H                    -0.978632
  ----------------------------------------
  Sum of atomic charges =    -1.000000

                    Cartesian Multipole Moments
 -----------------------------------------------------------------
    Charge (ESU x 10^10)
                -4.8032
    Dipole Moment (Debye)
         X      -0.0000      Y      -0.0000      Z     -13.4567
       Tot      13.4567
    Quadrupole Moments (Debye-Ang)
        XX     -21.5560     XY      -0.0000     YY     -24.0344
        XZ      -0.0000     YZ       0.0000     ZZ     -65.3332

 Total job time:  472.23s(wall), 2428.02s(cpu)
        *  Thank you very much for using Q-Chem.  Have a nice day.  *
