 Q-Chem 5.4 (devel), Q-Chem, Inc., Pleasanton, CA (2021)
 Q-Chem 5.4.1 for Intel X86 EM64T Linux

User input:
--------------------------------------------------------------
$molecule
-1 1
C       0.000000      0.664500   -0.176471
C       0.000000     -0.664500   -0.176471
H       0.000000      1.159080    0.785878
H       0.000000     -1.159080    0.785878
H       0.000000      1.159080   -1.138819
H       0.000000     -1.159080   -1.138819
H       0.000000      0.000000    2.823529
$end

$rem
   JOBTYPE opt
   METHOD MP2
   BASIS gen
   PURECART 11
   THRESH 14
   S2THRESH 14
   THREADS 10
   MEM_TOTAL 95000
$end
$basis
C     1
cc-pvtz
****
C     2
cc-pvtz
****
H     3
cc-pvtz
****
H     4
cc-pvtz
****
H     5
cc-pvtz
****
H     6
cc-pvtz
****
H     7
aug-cc-pvtz
****
$end
$opt
FIXED
1 xyz
2 xyz
3 xyz
4 xyz
5 xyz
6 xyz
7 xz
ENDFIXED
$end
--------------------------------------------------------------

             Standard Nuclear Orientation (Angstroms)
    I     Atom           X                Y                Z
 ----------------------------------------------------------------
    1      C      -0.6645000000    -0.0000000000    -0.1764707059
    2      C       0.6645000000    -0.0000000000    -0.1764707059
    3      H      -1.1590800000     0.0000000000     0.7858782941
    4      H       1.1590800000     0.0000000000     0.7858782941
    5      H      -1.1590800000    -0.0000000000    -1.1388187059
    6      H       1.1590800000    -0.0000000000    -1.1388187059
    7      H       0.0000000000     0.0000000000     2.8235292941
 ----------------------------------------------------------------

   11     -78.5350737024      1.63e-09  Convergence criterion met
 Total energy in the final basis set =      -78.5350737024
        MP2         total energy =                   -78.90005311 au
 Final energy is   -78.9000531145300
 **  OPTIMIZATION CONVERGED  **

             Orbital Energies (a.u.) and Symmetries
 --------------------------------------------------------------

 Alpha MOs, Restricted
 -- Occupied --
-11.053 -11.051  -0.866  -0.611  -0.485  -0.397  -0.340  -0.208
  1 A1    1 B1    2 A1    2 B1    3 A1    4 A1    3 B1    1 B2
 -0.024
  5 A1

 Beta MOs, Restricted
 -- Occupied --
-11.053 -11.051  -0.866  -0.611  -0.485  -0.397  -0.340  -0.208
  1 A1    1 B1    2 A1    2 B1    3 A1    4 A1    3 B1    1 B2
 -0.024
  5 A1

          Ground-State Mulliken Net Atomic Charges

     Atom                 Charge (a.u.)
  ----------------------------------------
      1 C                    -0.292167
      2 C                    -0.292167
      3 H                     0.140669
      4 H                     0.140669
      5 H                     0.085873
      6 H                     0.085873
      7 H                    -0.868750
  ----------------------------------------
  Sum of atomic charges =    -1.000000

                    Cartesian Multipole Moments
 -----------------------------------------------------------------
    Charge (ESU x 10^10)
                -4.8032
    Dipole Moment (Debye)
         X       0.0000      Y      -0.0000      Z     -11.3707
       Tot      11.3707
    Quadrupole Moments (Debye-Ang)
        XX     -18.7408     XY      -0.0000     YY     -20.4034
        XZ       0.0000     YZ      -0.0000     ZZ     -52.2388

 Total job time:  15.23s(wall), 82.11s(cpu)
        *  Thank you very much for using Q-Chem.  Have a nice day.  *
