 Q-Chem 5.4 (devel), Q-Chem, Inc., Pleasanton, CA (2021)
 Q-Chem 5.4.1 for Intel X86 EM64T Linux

User input:
--------------------------------------------------------------
$molecule
-1 1
C        -0.6645000000    0.0000000000   -0.2082049804
C         0.6645000000    0.0000000000   -0.2082049804
H        -1.1590800000    0.0000000000    0.7541440196
H         1.1590800000    0.0000000000    0.7541440196
H        -1.1590800000    0.0000000000   -1.1705529804
H         1.1590800000    0.0000000000   -1.1705529804
H         0.0000000000    2.0139349415   -0.2082049804
$end

$rem
   JOBTYPE opt
   METHOD MP2
   BASIS gen
   PURECART 11
   THRESH 14
   S2THRESH 14
   THREADS 10
   MEM_TOTAL 95000
$end
$basis
C     1
cc-pvtz
****
C     2
cc-pvtz
****
H     3
cc-pvtz
****
H     4
cc-pvtz
****
H     5
cc-pvtz
****
H     6
cc-pvtz
****
H     7
aug-cc-pvtz
****
$end

$opt
FIXED
1 xyz
2 xyz
3 xyz
4 xyz
5 xyz
6 xyz
7 xz
ENDFIXED
$end
--------------------------------------------------------------

   12     -78.4630496092      1.74e-09  Convergence criterion met
 Total energy in the final basis set =      -78.4630496092
        MP2         total energy =                   -78.83753990 au
   10     -78.4661853600      8.06e-09  Convergence criterion met
 Total energy in the final basis set =      -78.4661853600
        MP2         total energy =                   -78.84019783 au
   10     -78.4814845058      8.73e-09  Convergence criterion met
 Total energy in the final basis set =      -78.4814845058
        MP2         total energy =                   -78.85298107 au
   10     -78.4929028391      6.82e-09  Convergence criterion met
 Total energy in the final basis set =      -78.4929028391
        MP2         total energy =                   -78.86226192 au
   10     -78.5013647837      5.26e-09  Convergence criterion met
 Total energy in the final basis set =      -78.5013647837
        MP2         total energy =                   -78.86892125 au
 Total energy in the final basis set =      -78.5235938780
        MP2         total energy =                   -78.88358772 au
    9     -78.5239814842      4.33e-09  Convergence criterion met
 Total energy in the final basis set =      -78.5239814842
        MP2         total energy =                   -78.88368786 au
    9     -78.5241635043      4.05e-09  Convergence criterion met
 Total energy in the final basis set =      -78.5241635043
        MP2         total energy =                   -78.88371567 au
    9     -78.5242470933      3.32e-09  Convergence criterion met
 Total energy in the final basis set =      -78.5242470933
        MP2         total energy =                   -78.88372172 au

             Standard Nuclear Orientation (Angstroms)
    I     Atom           X                Y                Z
 ----------------------------------------------------------------
    1      C       0.0000003663     0.4438502432     0.6645000000
    2      C       0.0000003663     0.4438502432    -0.6645000000
    3      H      -0.9623486337     0.4438522630     1.1590800000
    4      H      -0.9623486337     0.4438522630    -1.1590800000
    5      H       0.9623483663     0.4438482235     1.1590800000
    6      H       0.9623483663     0.4438482235    -1.1590800000
    7      H      -0.0000038605    -3.8477690721     0.0000000000
 ----------------------------------------------------------------

    9     -78.5242794006      2.50e-09  Convergence criterion met
 Total energy in the final basis set =      -78.5242794006
        MP2         total energy =                   -78.88372255 au
 Final energy is   -78.8837225498201
 **  OPTIMIZATION CONVERGED  **

             Orbital Energies (a.u.) and Symmetries
 --------------------------------------------------------------

 Alpha MOs, Restricted
 -- Occupied --
-11.107 -11.105  -0.917  -0.661  -0.540  -0.447  -0.396  -0.254
  1 A'    1 A"    2 A'    2 A"    3 A'    4 A'    3 A"    5 A'
 -0.004
  6 A'

 Beta MOs, Restricted
 -- Occupied --
-11.107 -11.105  -0.917  -0.661  -0.540  -0.447  -0.396  -0.254
  1 A'    1 A"    2 A'    2 A"    3 A'    4 A'    3 A"    5 A'
 -0.004
  6 A'

          Ground-State Mulliken Net Atomic Charges

     Atom                 Charge (a.u.)
  ----------------------------------------
      1 C                    -0.247459
      2 C                    -0.247459
      3 H                     0.121045
      4 H                     0.121045
      5 H                     0.121045
      6 H                     0.121045
      7 H                    -0.989261
  ----------------------------------------
  Sum of atomic charges =    -1.000000

                    Cartesian Multipole Moments
 -----------------------------------------------------------------
    Charge (ESU x 10^10)
                -4.8032
    Dipole Moment (Debye)
         X       0.0000      Y      17.7286      Z      -0.0000
       Tot      17.7286
    Quadrupole Moments (Debye-Ang)
        XX     -16.7933     XY      -0.0001     YY     -90.8532
        XZ      -0.0000     YZ      -0.0000     ZZ     -17.9230

 Total job time:  240.80s(wall), 1383.60s(cpu)
        *  Thank you very much for using Q-Chem.  Have a nice day.  *
