 Q-Chem 5.4 (devel), Q-Chem, Inc., Pleasanton, CA (2021)
 Q-Chem 5.4.1 for Intel X86 EM64T Linux

User input:
--------------------------------------------------------------
$molecule
0 2
C       0.6645000000    -0.0000000000    -0.0000000000
C      -0.6645000000     0.0000000000     0.0000000000
H       1.1590799571     0.9623485159     0.0000000000
H       1.1590799571    -0.9623485159    -0.0000000000
H      -1.1590799571    -0.9623485159    -0.0000000000
H      -1.1590799571     0.9623485159     0.0000000000
H       0.0              10.0              0.0
$end

$rem
   METHOD HF
   BASIS sto-3g
$end
--------------------------------------------------------------

    5     -77.5334906485      8.84e-06  Convergence criterion met
 Total energy in the final basis set =      -77.5334906485
 Total job time:  0.16s(wall), 1.25s(cpu)
        *  Thank you very much for using Q-Chem.  Have a nice day.  *

User input: 2 of 2

/src/tsommerfeld/qchem/exe/qcprog.exe .input0.777778.4763.qcin.2 /src/jdavis/qchem.scratch/qchem4763/

                  Welcome to Q-Chem
     A Quantum Leap Into The Future Of Chemistry

 Q-Chem 5.4 (devel), Q-Chem, Inc., Pleasanton, CA (2021)

 E. Epifanovsky,  A. T. B. Gilbert,  Xintian Feng,  Joonho Lee,  Yuezhi Mao,
 N. Mardirossian,  P. Pokhilko,  A. White,  M. Wormit,  M. P. Coons,
 A. L. Dempwolff,  Zhengting Gan,  D. Hait,  P. R. Horn,  L. D. Jacobson,
 I. Kaliman,  J. Kussmann,  A. W. Lange,  Ka Un Lao,  D. S. Levine,  Jie Liu,
 S. C. McKenzie,  A. F. Morrison,  K. Nanda,  F. Plasser,  D. R. Rehn,
 M. L. Vidal,  Zhi-Qiang You,  Ying Zhu,  B. Alam,  B. Albrecht,
 A. Aldossary,  E. Alguire,  J. H. Andersen,  D. Barton,  K. Begam,  A. Behn,
 Y. A. Bernard,  E. J. Berquist,  H. Burton,  A. Carreras,  K. Carter-Fenk,
 R. Chakraborty,  A. D. Chien,  K. D. Closser,  V. Cofer-Shabica,
 S. Dasgupta,  Jia Deng,  M. de Wergifosse,  M. Diedenhofen,  Hainam Do,
 S. Ehlert,  Po-Tung Fang,  S. Fatehi,  Qingguo Feng,  T. Friedhoff,
 J. Gayvert,  Qinghui Ge,  G. Gidofalvi,  M. Goldey,  J. Gomes,
 C. Gonzalez-Espinoza,  S. Gulania,  A. Gunina,  M. W. D. Hanson-Heine,
 P. H. P. Harbach,  A. W. Hauser,  M. F. Herbst,  M. Hernandez Vera,
 M. Hodecker,  Z. C. Holden,  S. Houck,  Xunkun Huang,  Kerwin Hui,
 B. C. Huynh,  M. Ivanov,  Hyunjun Ji,  Hanjie Jiang,  B. Kaduk,  S. Kaehler,
 K. Khistyaev,  Jaehoon Kim,  P. Klunzinger,  Z. Koczor-Benda,
 Joong Hoon Koh,  D. Kosenkov,  L. Koulias,  T. Kowalczyk,  C. M. Krauter,
 K. Kue,  A. Kunitsa,  T. Kus,  A. Landau,  K. V. Lawler,  D. Lefrancois,
 S. Lehtola,  Rain Li,  Yi-Pei Li,  Jiashu Liang,  M. Liebenthal,
 Hung-Hsuan Lin,  You-Sheng Lin,  Fenglai Liu,  Kuan-Yu Liu,
 M. Loipersberger,  A. Luenser,  A. Manjanath,  P. Manohar,  E. Mansoor,
 S. F. Manzer,  Shan-Ping Mao,  A. V. Marenich,  T. Markovich,  S. Mason,
 S. A. Maurer,  P. F. McLaughlin,  M. F. S. J. Menger,  J.-M. Mewes,
 S. A. Mewes,  P. Morgante,  J. W. Mullinax,  K. J. Oosterbaan,  G. Paran,
 Alexander C. Paul,  Suranjan K. Paul,  F. Pavosevic,  Zheng Pei,  S. Prager,
 E. I. Proynov,  E. Ramos,  B. Rana,  A. E. Rask,  A. Rettig,  R. M. Richard,
 F. Rob,  E. Rossomme,  T. Scheele,  M. Scheurer,  M. Schneider,
 N. Sergueev,  S. M. Sharada,  W. Skomorowski,  D. W. Small,  C. J. Stein,
 Yu-Chuan Su,  E. J. Sundstrom,  Zhen Tao,  J. Thirman,  T. Tsuchimochi,
 N. M. Tubman,  S. P. Veccham,  O. Vydrov,  J. Wenzel,  J. Witte,  A. Yamada,
 Kun Yao,  S. Yeganeh,  S. R. Yost,  A. Zech,  Igor Ying Zhang,  Xing Zhang,
 Yu Zhang,  D. Zuev,  A. Aspuru-Guzik,  A. T. Bell,  N. A. Besley,
 K. B. Bravaya,  B. R. Brooks,  D. Casanova,  Jeng-Da Chai,  S. Coriani,
 C. J. Cramer,  A. E. DePrince, III,  R. A. DiStasio Jr.,  A. Dreuw,
 B. D. Dunietz,  T. R. Furlani,  W. A. Goddard III,  S. Grimme,
 S. Hammes-Schiffer,  T. Head-Gordon,  W. J. Hehre,  Chao-Ping Hsu,
 T.-C. Jagau,  Yousung Jung,  A. Klamt,  Jing Kong,  D. S. Lambrecht,
 WanZhen Liang,  N. J. Mayhall,  C. W. McCurdy,  J. B. Neaton,
 C. Ochsenfeld,  J. A. Parkhill,  R. Peverati,  V. A. Rassolov,  Yihan Shao,
 L. V. Slipchenko,  T. Stauch,  R. P. Steele,  J. E. Subotnik,
 A. J. W. Thom,  A. Tkatchenko,  D. G. Truhlar,  T. Van Voorhis,
 T. A. Wesolowski,  K. B. Whaley,  H. L. Woodcock III,  P. M. Zimmerman,
 S. Faraji,  P. M. W. Gill,  M. Head-Gordon,  J. M. Herbert,  A. I. Krylov

 Additional authors for Version 5.4.1:
 S. Kotaru,  Shaozhi Li,  Xiangyuan Li,  F. Matz,  A. Molle,  Haisheng Ren,
 Yingli Su,  Hung-Yi Tsai,  C. Utku,  Fang Wang

 Contributors to earlier versions of Q-Chem not listed above:
 R. D. Adamson,  B. Austin,  R. Baer,  J. Baker,  G. J. O. Beran,
 K. Brandhorst,  S. T. Brown,  E. F. C. Byrd,  A. K. Chakraborty,
 G. K. L. Chan,  Chun-Min Chang,  Yunqing Chen,  C.-L. Cheng,
 Siu Hung Chien,  D. M. Chipman,  D. L. Crittenden,  H. Dachsel,
 R. J. Doerksen,  A. D. Dutoi,  R. G. Edgar,  J. Fosso-Tande,
 L. Fusti-Molnar,  D. Ghosh,  A. Ghysels,  A. Golubeva-Zadorozhnaya,
 J. Gonthier,  M. S. Gordon,  S. R. Gwaltney,  G. Hawkins,  J. E. Herr,
 A. Heyden,  S. Hirata,  E. G. Hohenstein,  G. Kedziora,  F. J. Keil,
 C. Kelley,  Jihan Kim,  R. A. King,  R. Z. Khaliullin,  P. P. Korambath,
 W. Kurlancheek,  A. Laurent,  A. M. Lee,  M. S. Lee,  S. V. Levchenko,
 Ching Yeh Lin,  D. Liotard,  E. Livshits,  R. C. Lochan,  I. Lotan,
 L. A. Martinez-Martinez,  P. E. Maslen,  N. Nair,  D. P. O'Neill,
 D. Neuhauser,  E. Neuscamman,  C. M. Oana,  R. Olivares-Amaya,  R. Olson,
 T. M. Perrine,  B. Peters,  P. A. Pieniazek,  A. Prociuk,  Y. M. Rhee,
 J. Ritchie,  M. A. Rohrdanz,  E. Rosta,  N. J. Russ,  H. F. Schaefer III,
 M. W. Schmidt,  N. E. Schultz,  S. Sharma,  N. Shenvi,  C. D. Sherrill,
 A. C. Simmonett,  A. Sodt,  T. Stein,  D. Stuck,  K. S. Thanthiriwatte,
 V. Vanovschi,  L. Vogt,  Tao Wang,  A. Warshel,  M. A. Watson,
 C. F. Williams,  Q. Wu,  X. Xu,  Jun Yang,  W. Zhang,  Yan Zhao

 Please cite Q-Chem as follows:
 Y. Shao et al., Mol. Phys. 113, 184-215 (2015)
 DOI: 10.1080/00268976.2014.952696

 Q-Chem 5.4.1 for Intel X86 EM64T Linux

 Parts of Q-Chem use Armadillo 9.900.5 (Nocturnal Misbehaviour).
 http://arma.sourceforge.net/

 Q-Chem begins on Wed Feb  9 07:26:45 2022

 Host: node01
0

     Scratch files written to /src/jdavis/qchem.scratch/qchem4763//
 Processing $rem in /src/tsommerfeld/qchem/config/preferences:
 Processing $rem in /home/jdavis/.qchemrc:

 Q-Chem warning in module libgen/rem_setup.C, line 2429:

 Setting Thresh to 1e-14

 Checking the input file for inconsistencies... 	...done.

--------------------------------------------------------------
User input:
--------------------------------------------------------------
$molecule
-1 1
C       0.6645000000    -0.0000000000    -0.0000000000
C      -0.6645000000     0.0000000000     0.0000000000
H       1.1590799571     0.9623485159     0.0000000000
H       1.1590799571    -0.9623485159    -0.0000000000
H      -1.1590799571    -0.9623485159    -0.0000000000
H      -1.1590799571     0.9623485159     0.0000000000
H       0.0              10.0              0.0
$end

$rem
   METHOD adc(2)
   SCF_GUESS READ
   BASIS sto-3g
   SCF_ALGORITHM GDM
   EE_STATES 5
   THRESH 24
   S2THRESH 24
   ADC_DAVIDSON_MAXITER 120
   ADC_DAVIDSON_MAXSUBSPACE 84
   ADC_DO_DIIS TRUE
   MEM_TOTAL 95000
   STATE_ANALYSIS TRUE
$end
--------------------------------------------------------------

             Standard Nuclear Orientation (Angstroms)
    I     Atom           X                Y                Z
 ----------------------------------------------------------------
    1      C      -0.6645000000    -0.0000000000    -0.5882352941
    2      C       0.6645000000     0.0000000000    -0.5882352941
    3      H      -1.1590799571    -0.0000000000     0.3741132218
    4      H      -1.1590799571    -0.0000000000    -1.5505838100
    5      H       1.1590799571     0.0000000000    -1.5505838100
    6      H       1.1590799571     0.0000000000     0.3741132218
    7      H       0.0000000000    -0.0000000000     9.4117647059
 ----------------------------------------------------------------

    7     -77.2256650936      5.89E-09 Convergence criterion met
 Total energy in the final basis set = -77.22566509
  Excited state 0:
  Excited state 1:
  Excited state 2:
  Excited state 3:
  Excited state 4:
  Excited state 0:
  Excited state 1:
  Excited state 2:
  Excited state 3:
  Excited state 4:
  Excited state 0:
  Excited state 1:
  Excited state 2:
  Excited state 3:
  Excited state 4:
  Excited state 0:
  Excited state 1:
  Excited state 2:
  Excited state 3:
  Excited state 4:
  Term symbol:  1 (1) A2                                    R^2 =  1.62165e-29
  Excitation energy:                                               0.450964 eV
  Term symbol:  2 (1) A1                                    R^2 =  2.50349e-11
  Excitation energy:                                               7.964206 eV
  Term symbol:  3 (1) A1                                    R^2 =  2.69838e-07
  Excitation energy:                                               8.660706 eV
  Term symbol:  1 (1) B1                                    R^2 =  3.05923e-09
  Excitation energy:                                               8.887798 eV
  Term symbol:  1 (1) B2                                    R^2 =  7.05817e-08
  Excitation energy:                                              11.964428 eV
  Term symbol:  2 (1) A2                                    R^2 =  6.24026e-09
  Excitation energy:                                              12.001829 eV
  Term symbol:  2 (1) B1                                    R^2 =  4.69419e-09
  Excitation energy:                                              12.429403 eV
  Term symbol:  3 (1) A2                                    R^2 =  7.72128e-08
  Excitation energy:                                              15.502405 eV
  Term symbol:  3 (1) B1                                    R^2 =  7.73049e-08
  Excitation energy:                                              16.016433 eV
  Excited state 10 (singlet, B2)                               [not converged]
  Term symbol:  2 (1) B2                                    R^2 =  2.14825e-06
  Excitation energy:                                              17.011860 eV
  Excited state 11 (singlet, B2)                               [not converged]
  Term symbol:  3 (1) B2                                    R^2 =  1.62236e-06
  Excitation energy:                                              17.132646 eV
  Excited state 12 (singlet, B1)                                   [converged]
  Term symbol:  4 (1) B1                                    R^2 =  3.41916e-09
  Excitation energy:                                              17.223826 eV
  Excited state 13 (singlet, A2)                                   [converged]
  Term symbol:  4 (1) A2                                    R^2 =  1.07765e-08
  Excitation energy:                                              18.375537 eV
  Excited state 14 (singlet, B2)                                   [converged]
  Term symbol:  4 (1) B2                                    R^2 =  8.99718e-10
  Excitation energy:                                              20.412095 eV
  Excited state 15 (singlet, B1)                                   [converged]
  Term symbol:  5 (1) B1                                    R^2 =  1.12239e-07
  Excitation energy:                                              20.993857 eV
  Excited state 16 (singlet, A1)                                   [converged]
  Term symbol:  4 (1) A1                                    R^2 =  8.38482e-08
  Excitation energy:                                              21.463438 eV
  Excited state 17 (singlet, A1)                                   [converged]
  Term symbol:  5 (1) A1                                    R^2 =  7.07302e-07
  Excitation energy:                                              21.975709 eV
  Excited state 18 (singlet, A1)                                   [converged]
  Term symbol:  6 (1) A1                                    R^2 =  1.84040e-07
  Excitation energy:                                              22.799811 eV
  Excited state 19 (singlet, A2)                                   [converged]
  Term symbol:  5 (1) A2                                    R^2 =  3.82495e-08
  Excitation energy:                                              24.021205 eV
  Excited state 20 (singlet, B2)                                   [converged]
  Term symbol:  5 (1) B2                                    R^2 =  1.82646e-07
  Excitation energy:                                             288.681707 eV

             Orbital Energies (a.u.) and Symmetries
 --------------------------------------------------------------

 Alpha MOs, Restricted
 -- Occupied --
-10.962 -10.961  -0.930  -0.680  -0.566  -0.458  -0.417  -0.272
  1 A1    1 B1    2 A1    2 B1    3 A1    4 A1    3 B1    1 B2
  0.308
  5 A1

 Beta MOs, Restricted
 -- Occupied --
-10.962 -10.961  -0.930  -0.680  -0.566  -0.458  -0.417  -0.272
  1 A1    1 B1    2 A1    2 B1    3 A1    4 A1    3 B1    1 B2
  0.308
  5 A1

          Ground-State Mulliken Net Atomic Charges

     Atom                 Charge (a.u.)
  ----------------------------------------
      1 C                    -0.129915
      2 C                    -0.129915
      3 H                     0.070604
      4 H                     0.059311
      5 H                     0.059311
      6 H                     0.070604
      7 H                    -1.000000
  ----------------------------------------
  Sum of atomic charges =    -1.000000

                    Cartesian Multipole Moments
 -----------------------------------------------------------------
    Charge (ESU x 10^10)
                -4.8032
    Dipole Moment (Debye)
         X       0.0000      Y      -0.0000      Z     -45.1234
       Tot      45.1234
    Quadrupole Moments (Debye-Ang)
        XX     -14.1254     XY      -0.0000     YY     -15.2189
        XZ      -0.0000     YZ       0.0000     ZZ    -438.8052

 Total job time:  49.79s(wall), 79.44s(cpu)
        *  Thank you very much for using Q-Chem.  Have a nice day.  *
