 Q-Chem 5.4 (devel), Q-Chem, Inc., Pleasanton, CA (2021)
 Q-Chem 5.4.1 for Intel X86 EM64T Linux

User input:
--------------------------------------------------------------
$molecule
-1 1
C       0.6645000000    -0.0000000000    -0.0000000000
C      -0.6645000000     0.0000000000     0.0000000000
H       1.1590799571     0.9623485159     0.0000000000
H       1.1590799571    -0.9623485159    -0.0000000000
H      -1.1590799571    -0.9623485159    -0.0000000000
H      -1.1590799571     0.9623485159     0.0000000000
H       0.0              4.0              0.0
$end

$rem
   METHOD HF
   BASIS sto-3g
$end
--------------------------------------------------------------

             Standard Nuclear Orientation (Angstroms)
    I     Atom           X                Y                Z
 ----------------------------------------------------------------
    1      C      -0.6645000000    -0.0000000000    -0.2352941176
    2      C       0.6645000000     0.0000000000    -0.2352941176
    3      H      -1.1590799571    -0.0000000000     0.7270543983
    4      H      -1.1590799571    -0.0000000000    -1.1976426335
    5      H       1.1590799571     0.0000000000    -1.1976426335
    6      H       1.1590799571     0.0000000000     0.7270543983
    7      H      -0.0000000000    -0.0000000000     3.7647058824
 ----------------------------------------------------------------

    6     -77.2296703991      2.04e-06  Convergence criterion met
 Total energy in the final basis set =      -77.2296703991

             Orbital Energies (a.u.) and Symmetries
 --------------------------------------------------------------

 Alpha MOs, Restricted
 -- Occupied --
-10.880 -10.880  -0.850  -0.603  -0.484  -0.379  -0.335  -0.193
  1 A1    1 B1    2 A1    2 B1    3 A1    4 A1    3 B1    1 B2
  0.301
  5 A1

 Beta MOs, Restricted
 -- Occupied --
-10.880 -10.880  -0.850  -0.603  -0.484  -0.379  -0.335  -0.193
  1 A1    1 B1    2 A1    2 B1    3 A1    4 A1    3 B1    1 B2
  0.301
  5 A1

          Ground-State Mulliken Net Atomic Charges

     Atom                 Charge (a.u.)
  ----------------------------------------
      1 C                    -0.137823
      2 C                    -0.137823
      3 H                     0.100680
      4 H                     0.035491
      5 H                     0.035491
      6 H                     0.100680
      7 H                    -0.996697
  ----------------------------------------
  Sum of atomic charges =    -1.000000

                    Cartesian Multipole Moments
 -----------------------------------------------------------------
    Charge (ESU x 10^10)
                -4.8032
    Dipole Moment (Debye)
         X       0.0000      Y      -0.0000      Z     -17.5384
       Tot      17.5384
    Quadrupole Moments (Debye-Ang)
        XX     -14.1278     XY       0.0000     YY     -15.2199
        XZ       0.0000     YZ       0.0000     ZZ     -81.2549

 Total job time:  0.15s(wall), 0.10s(cpu)
        *  Thank you very much for using Q-Chem.  Have a nice day.  *
