                               Psi4 1.2.1 release

  ==> Input File <==

--------------------------------------------------------------------------
import numpy as np
memory 10000 mb

set{
	reference RHF
	roots_per_irrep [0,0,3,0]
}

basis{
	assign C cc-pvdz
	assign H cc-pvdz
	assign H7 cc-pvdz
}

molecule eth {
        -1 1
        C       0.000000      0.0   -0.664500
        C       0.000000      0.0    0.664500
        H       0.962348      0.0   -1.159080
        H       0.962348      0.0    1.159080
        H      -0.962348      0.0   -1.159080
        H      -0.962348      0.0    1.159080
        H7      0.000000      R      0.000000
}

rs = np.linspace(0.2, 5, num=5, endpoint=True)
Es = {}
st1 = np.zeros(len(rs))
st2 = np.zeros(len(rs))
st3 = np.zeros(len(rs))

for i,R in enumerate(rs):
	eth.R = R
	Es[R]=energy('eom-ccsd')
	st1[i] = get_variable('CC ROOT 1 TOTAL ENERGY')
	st2[i] = get_variable('CC ROOT 2 TOTAL ENERGY')
	st3[i] = get_variable('CC ROOT 3 TOTAL ENERGY')

psi4.print_out("\n")
psi4.print_out("PES of 3 states")
psi4.print_out("        R [Ang]         E    st1     st2    st3            \n")
psi4.print_out("-----------------------------------------------------\n")
for i,R in enumerate(rs):
   e = Es[R]
   psi4.print_out("   %3.1f            %10.6f     %10.6f      %10.6f      %10.6f\n" % (R, e, st1[i], st2[i], st3[i]))
--------------------------------------------------------------------------

    Molecular point group: c2v
  Charge       = -1
  Multiplicity = 1
  Basis Set: ANONYMOUS3B0096F6
    Blend: CC-PVDZ
  @RHF Final Energy:   -77.49966389198350
    Total Energy =                        -77.4996638919835021
      * MP2 total energy                      =  -77.845112711614320
      * CCSD total energy                     =  -77.882444308239457
    Molecular point group: c2v
  Basis Set: ANONYMOUS3B0096F6
    Blend: CC-PVDZ
  @RHF Final Energy:   -78.28604886722964
    Total Energy =                        -78.2860488672296384
      * MP2 total energy                      =  -78.607467796740607
      * CCSD total energy                     =  -78.642222802343980
  Basis Set: ANONYMOUS3B0096F6
    Blend: CC-PVDZ
  @RHF Final Energy:   -78.46281251771386
    Total Energy =                        -78.4628125177138571
      * MP2 total energy                      =  -78.765066168537047
      * CCSD total energy                     =  -78.799749177485140
  Multiplicity = 1
  Basis Set: ANONYMOUS3B0096F6
    Blend: CC-PVDZ
  @RHF Final Energy:   -78.48098314077941
    Total Energy =                        -78.4809831407794150
      * MP2 total energy                      =  -78.778353471036311
      * CCSD total energy                     =  -78.812947432236669
    Molecular point group: c2v

    Geometry (in Angstrom), charge = -1, multiplicity = 1:

       Center              X                  Y                   Z               Mass
    ------------   -----------------  -----------------  -----------------  -----------------
         C            0.000000000000     0.000000000000    -0.664500000000    12.000000000000
         C            0.000000000000     0.000000000000     0.664500000000    12.000000000000
         H            0.962348000000     0.000000000000    -1.159080000000     1.007825032070
         H            0.962348000000     0.000000000000     1.159080000000     1.007825032070
         H           -0.962348000000     0.000000000000    -1.159080000000     1.007825032070
         H           -0.962348000000     0.000000000000     1.159080000000     1.007825032070
         H            0.000000000000     5.000000000000     0.000000000000     1.007825032070

  Charge       = -1
  Multiplicity = 1
  Basis Set: ANONYMOUS3B0096F6
    Blend: CC-PVDZ

    Orbital Energies [Eh]
    ---------------------

    Doubly Occupied:

       1A1   -11.129457     1B2   -11.127750     2A1    -0.933796
       2B2    -0.675761     1B1    -0.553885     3A1    -0.460447
       1A2    -0.409932     4A1    -0.269390     5A1     0.023286

  @RHF Final Energy:   -78.48259790774914

   => Energetics <=

    Nuclear Repulsion Energy =             35.2535205461563592
    One-Electron Energy =                -176.3979748644175629
    Two-Electron Energy =                  62.6618564105120726
    Total Energy =                        -78.4825979077491382

  Dipole Moment: [D]
     X:     0.0000      Y:   -23.7167      Z:     0.0000     Total:    23.7167

      * MP2 total energy                      =  -78.779093083140069
      * CCSD total energy                     =  -78.813636604040596
*** Psi4 exiting successfully. Buy a developer a beer!
