 Q-Chem 5.4 (devel), Q-Chem, Inc., Pleasanton, CA (2021)
 Q-Chem 5.4.1 for Intel X86 EM64T Linux

User input:
--------------------------------------------------------------
$comment
	Ethylene CAP-EOM-CCSD
	Basis: C/7H: jun-TZ+4p1d, H: TZ
$end

$molecule
-1 1
C      -0.6645000000     0.0000000000    -0.5882352941
C       0.6645000000    -0.0000001253    -0.5882352941
H      -1.1590800000    -0.9623488747    -0.5882353066
H       1.1590800000    -0.9623488747    -0.5882353066
H      -1.1590800000     0.9623488747    -0.5882353066
H       1.1590800000     0.9623488747    -0.5882353066
H       0.0000000000     0.0000000000     9.4117647059
$end

$rem
	method eom-ccsd
	basis gen
        EE_STATES [0,0,10,0]
	complex_ccman 1
	xc_grid 000250000974
	scf_convergence 8
	thresh 14
	mem_total 95000
	threads 12
$end

$complex_ccman
	cap_type 2
	proj_cap 3
	cap_eta 300
	cap_x 3500
$end

$basis
C     1
S    8   1.00
   8236.0000000              0.0005310
   1235.0000000              0.0041080
    280.8000000              0.0210870
     79.2700000              0.0818530
     25.5900000              0.2348170
      8.9970000              0.4344010
      3.3190000              0.3461290
      0.3643000             -0.0089830
S    1   1.00
      0.9059000              1.0000000
S    8   1.00
   8236.0000000             -0.0001130
   1235.0000000             -0.0008780
    280.8000000             -0.0045400
     79.2700000             -0.0181330
     25.5900000             -0.0557600
      8.9970000             -0.1268950
      3.3190000             -0.1703520
      0.3643000              0.5986840
S    1   1.00
      0.1285000              1.0000000
S    1   1.00
      0.0440200              1.0000000
P    3   1.00
     18.7100000              0.0140310
      4.1330000              0.0868660
      1.2000000              0.2902160
P    1   1.00
      0.3827000              1.0000000
P    1   1.00
      0.1209000              1.0000000
P    1   1.00
      0.0356900              1.0000000
P    1   1.0
      0.0237933 1.0
P    1   1.0
      0.0158622 1.0
P    1   1.0
      0.0105748 1.0
P    1   1.0
      0.0070498 1.0
D    1   1.00
      1.0970000              1.0000000
D    1   1.00
      0.3180000              1.0000000
D    1   1.00
      0.1000000              1.0000000
D    1   1.00
      0.0500000 1.0
F    1   1.00
      0.7610000              1.0000000
****
C     2
S    8   1.00
   8236.0000000              0.0005310
   1235.0000000              0.0041080
    280.8000000              0.0210870
     79.2700000              0.0818530
     25.5900000              0.2348170
      8.9970000              0.4344010
      3.3190000              0.3461290
      0.3643000             -0.0089830
S    1   1.00
      0.9059000              1.0000000
S    8   1.00
   8236.0000000             -0.0001130
   1235.0000000             -0.0008780
    280.8000000             -0.0045400
     79.2700000             -0.0181330
     25.5900000             -0.0557600
      8.9970000             -0.1268950
      3.3190000             -0.1703520
      0.3643000              0.5986840
S    1   1.00
      0.1285000              1.0000000
S    1   1.00
      0.0440200              1.0000000
P    3   1.00
     18.7100000              0.0140310
      4.1330000              0.0868660
      1.2000000              0.2902160
P    1   1.00
      0.3827000              1.0000000
P    1   1.00
      0.1209000              1.0000000
P    1   1.00
      0.0356900              1.0000000
P    1   1.0
      0.0237933 1.0
P    1   1.0
      0.0158622 1.0
P    1   1.0
      0.0105748 1.0
P    1   1.0
      0.0070498 1.0
D    1   1.00
      1.0970000              1.0000000
D    1   1.00
      0.3180000              1.0000000
D    1   1.00
      0.1000000              1.0000000
D    1   1.00
      0.0500000 1.0
F    1   1.00
      0.7610000              1.0000000
****
H     3
cc-pVTZ
****
H     4
cc-pVTZ
****
H     5
cc-pVTZ
****
H     6
cc-pVTZ
****
H     7
S    1   1.00
      3.258000D-01           1.000000D+00
S    5   1.00
      3.387000D+01           6.068000D-03
      5.095000D+00           4.530800D-02
      1.159000D+00           2.028220D-01
      3.258000D-01           5.039030D-01
      1.027000D-01           3.834210D-01
S    1   1.00
      1.027000D-01           1.000000D+00
P    1   1.00
      1.407000D+00           1.000000D+00
P    1   1.00
      3.880000D-01           1.000000D+00
D    1   1.00
      1.057000D+00           1.0000000
****
$end
--------------------------------------------------------------

             Standard Nuclear Orientation (Angstroms)
    I     Atom           X                Y                Z
 ----------------------------------------------------------------
    1      C      -0.6645000000    -0.0000000005    -0.5882352912
    2      C       0.6645000000     0.0000000005    -0.5882352912
    3      H      -1.1590799310    -0.9623489107    -0.5882353084
    4      H       1.1590799310    -0.9623489107    -0.5882353084
    5      H      -1.1590799310     0.9623489107    -0.5882353084
    6      H       1.1590799310     0.9623489107    -0.5882353084
    7      H       0.0000000000    -0.0000000018     9.4117647088
 ----------------------------------------------------------------

   11     -78.5326250506      5.33e-09  Convergence criterion met
 Total energy in the final basis set =      -78.5326250506
 CCSD total energy          = -78.92777278
 EOMEE transition 1/B1
 Total energy = -78.91168136 a.u.  Excitation energy = 0.4379 eV.
 EOMEE transition 2/B1
 Total energy = -78.90525776 a.u.  Excitation energy = 0.6127 eV.
 EOMEE transition 3/B1
 Total energy = -78.89153594 a.u.  Excitation energy = 0.9861 eV.
 EOMEE transition 4/B1
 Total energy = -78.87963365 a.u.  Excitation energy = 1.3099 eV.
 EOMEE transition 5/B1
 Total energy = -78.85672187 a.u.  Excitation energy = 1.9334 eV.
 EOMEE transition 6/B1
 Total energy = -78.84417704 a.u.  Excitation energy = 2.2748 eV.
 EOMEE transition 7/B1
 Total energy = -78.81086865 a.u.  Excitation energy = 3.1811 eV.
 EOMEE transition 8/B1
 Total energy = -78.80129025 a.u.  Excitation energy = 3.4418 eV.
 EOMEE transition 9/B1
 Total energy = -78.75995678 a.u.  Excitation energy = 4.5665 eV.
 EOMEE transition 10/B1
 Total energy = -78.74791234 a.u.  Excitation energy = 4.8943 eV.
 Excited state properties for  EOMEE-CCSD transition 1/B1
 Excited state properties for  EOMEE-CCSD transition 2/B1
 Excited state properties for  EOMEE-CCSD transition 3/B1
 Excited state properties for  EOMEE-CCSD transition 4/B1
 Excited state properties for  EOMEE-CCSD transition 5/B1
 Excited state properties for  EOMEE-CCSD transition 6/B1
 Excited state properties for  EOMEE-CCSD transition 7/B1
 Excited state properties for  EOMEE-CCSD transition 8/B1
 Excited state properties for  EOMEE-CCSD transition 9/B1
 Excited state properties for  EOMEE-CCSD transition 10/B1

             Orbital Energies (a.u.) and Symmetries
 --------------------------------------------------------------

 Alpha MOs, Restricted
 -- Occupied --
-11.175 -11.173  -0.987  -0.728  -0.608  -0.515  -0.463  -0.324
  1 A1    1 B1    2 A1    2 B1    1 B2    3 A1    1 A2    4 A1
 -0.028
  5 A1

 Beta MOs, Restricted
 -- Occupied --
-11.175 -11.173  -0.987  -0.728  -0.608  -0.515  -0.463  -0.324
  1 A1    1 B1    2 A1    2 B1    1 B2    3 A1    1 A2    4 A1
 -0.028
  5 A1

          Ground-State Mulliken Net Atomic Charges

     Atom                 Charge (a.u.)
  ----------------------------------------
      1 C                    -0.400556
      2 C                    -0.400556
      3 H                     0.156994
      4 H                     0.156994
      5 H                     0.156994
      6 H                     0.156994
      7 H                    -0.826864
  ----------------------------------------
  Sum of atomic charges =    -1.000000

                    Cartesian Multipole Moments
 -----------------------------------------------------------------
    Charge (ESU x 10^10)
                -4.8032
    Dipole Moment (Debye)
         X       0.0000      Y       0.0000      Z     -40.6422
       Tot      40.6422
    Quadrupole Moments (Debye-Ang)
        XX     -31.6498     XY      -0.0000     YY     -27.4792
        XZ      -0.0000     YZ       0.0000     ZZ    -428.3477

 Total job time:  579.13s(wall), 3902.02s(cpu)
        *  Thank you very much for using Q-Chem.  Have a nice day.  *
