 Q-Chem 5.4 (devel), Q-Chem, Inc., Pleasanton, CA (2021)
 Q-Chem 5.4.1 for Intel X86 EM64T Linux

User input:
--------------------------------------------------------------
$molecule
-1 1
C        -0.6645000000    0.0000000000   -0.1764707059
C         0.6645000000    0.0000000000   -0.1764707059
H        -1.1590800000    0.0000000000    0.7858782941
H         1.1590800000    0.0000000000    0.7858782941
H        -1.1590800000    0.0000000000   -1.1388187059
H         1.1590800000    0.0000000000   -1.1388187059
H         0.0000000000    0.0000000000    2.8235292941
$end

$rem
   METHOD adc(3)
   BASIS gen
   PURECART 11
   EE_STATES [0,10,0,0]
   scf_convergence 8
   ADC_DAVIDSON_MAXITER 120
   ADC_DAVIDSON_MAXSUBSPACE 200
   adc_nguess_singles 100
   THRESH 14
   S2THRESH 14
   adc_davidson_conv 5
   adc_davidson_thresh 14
   THREADS 10
   MEM_TOTAL 95000
   STATE_ANALYSIS TRUE
$end
$basis
C 1
S   9   1.00
      6.665000D+03           6.920000D-04
      1.000000D+03           5.329000D-03
      2.280000D+02           2.707700D-02
      6.471000D+01           1.017180D-01
      2.106000D+01           2.747400D-01
      7.495000D+00           4.485640D-01
      2.797000D+00           2.850740D-01
      5.215000D-01           1.520400D-02
      1.596000D-01          -3.191000D-03
S   9   1.00
      6.665000D+03          -1.460000D-04
      1.000000D+03          -1.154000D-03
      2.280000D+02          -5.725000D-03
      6.471000D+01          -2.331200D-02
      2.106000D+01          -6.395500D-02
      7.495000D+00          -1.499810D-01
      2.797000D+00          -1.272620D-01
      5.215000D-01           5.445290D-01
      1.596000D-01           5.804960D-01
S   1   1.00
      1.596000D-01           1.000000D+00
S   1   1.00
      0.0469000              1.0000000
P   4   1.00
      9.439000D+00           3.810900D-02
      2.002000D+00           2.094800D-01
      5.456000D-01           5.085570D-01
      1.517000D-01           4.688420D-01
P   1   1.00
      1.517000D-01           1.000000D+00
P   1   1.00
      0.0809067      1.0000000
P   1   1.00
      0.0404533      1.0000000
D   1   1.00
      5.500000D-01           1.0000000
****
C 2
S   9   1.00
      6.665000D+03           6.920000D-04
      1.000000D+03           5.329000D-03
      2.280000D+02           2.707700D-02
      6.471000D+01           1.017180D-01
      2.106000D+01           2.747400D-01
      7.495000D+00           4.485640D-01
      2.797000D+00           2.850740D-01
      5.215000D-01           1.520400D-02
      1.596000D-01          -3.191000D-03
S   9   1.00
      6.665000D+03          -1.460000D-04
      1.000000D+03          -1.154000D-03
      2.280000D+02          -5.725000D-03
      6.471000D+01          -2.331200D-02
      2.106000D+01          -6.395500D-02
      7.495000D+00          -1.499810D-01
      2.797000D+00          -1.272620D-01
      5.215000D-01           5.445290D-01
      1.596000D-01           5.804960D-01
S   1   1.00
      1.596000D-01           1.000000D+00
S   1   1.00
      0.0469000              1.0000000
P   4   1.00
      9.439000D+00           3.810900D-02
      2.002000D+00           2.094800D-01
      5.456000D-01           5.085570D-01
      1.517000D-01           4.688420D-01
P   1   1.00
      1.517000D-01           1.000000D+00
P   1   1.00
      0.0809067      1.0000000
P   1   1.00
      0.0404533      1.0000000
D   1   1.00
      5.500000D-01           1.0000000
****
H 3
cc-pVDZ
****
H 4
cc-pVDZ
****
H 5
cc-pVDZ
****
H 6
cc-pVDZ
****
H 7
aug-cc-pVDZ
****
$end
--------------------------------------------------------------

             Standard Nuclear Orientation (Angstroms)
    I     Atom           X                Y                Z
 ----------------------------------------------------------------
    1      C      -0.6645000000    -0.0000000000    -0.1764707059
    2      C       0.6645000000     0.0000000000    -0.1764707059
    3      H      -1.1590800000    -0.0000000000     0.7858782941
    4      H       1.1590800000     0.0000000000     0.7858782941
    5      H      -1.1590800000    -0.0000000000    -1.1388187059
    6      H       1.1590800000     0.0000000000    -1.1388187059
    7      H       0.0000000000     0.0000000000     2.8235292941
 ----------------------------------------------------------------

   12     -78.5092180240      1.61E-09 Convergence criterion met
 Total energy in the final basis set = -78.50921802
  Excited state 1 (singlet, A2)                                    [converged]
  Term symbol:  1 (1) A2                                    R^2 =  7.11222e-15
  Excitation energy:                                               2.312136 eV
  Excited state 2 (singlet, A2)                                    [converged]
  Term symbol:  2 (1) A2                                    R^2 =  7.91457e-14
  Excitation energy:                                               4.227328 eV
  Excited state 3 (singlet, A2)                                    [converged]
  Term symbol:  3 (1) A2                                    R^2 =  2.75740e-12
  Excitation energy:                                               6.548762 eV
  Excited state 4 (singlet, A2)                                    [converged]
  Term symbol:  4 (1) A2                                    R^2 =  2.04386e-11
  Excitation energy:                                               7.155391 eV
  Excited state 5 (singlet, A2)                                    [converged]
  Term symbol:  5 (1) A2                                    R^2 =  5.49831e-11
  Excitation energy:                                               8.341016 eV
  Excited state 6 (singlet, A2)                                    [converged]
  Term symbol:  6 (1) A2                                    R^2 =  7.14092e-10
  Excitation energy:                                               9.230048 eV
  Excited state 7 (singlet, A2)                                    [converged]
  Term symbol:  7 (1) A2                                    R^2 =  2.09847e-09
  Excitation energy:                                               9.356629 eV
  Excited state 8 (singlet, A2)                                    [converged]
  Term symbol:  8 (1) A2                                    R^2 =  5.96065e-09
  Excitation energy:                                               9.540954 eV
  Excited state 9 (singlet, A2)                                    [converged]
  Term symbol:  9 (1) A2                                    R^2 =  8.15640e-08
  Excitation energy:                                               9.842262 eV
  Excited state 10 (singlet, A2)                                    [converged]
  Term symbol:  10 (1) A2                                   R^2 =  7.97428e-06
  Excitation energy:                                               9.964582 eV

             Orbital Energies (a.u.) and Symmetries
 --------------------------------------------------------------

 Alpha MOs, Restricted
 -- Occupied --
-11.065 -11.063  -0.871  -0.614  -0.488  -0.399  -0.342  -0.208
  1 A1    1 B1    2 A1    2 B1    3 A1    4 A1    3 B1    1 B2
 -0.024
  5 A1

 Beta MOs, Restricted
 -- Occupied --
-11.065 -11.063  -0.871  -0.614  -0.488  -0.399  -0.342  -0.208
  1 A1    1 B1    2 A1    2 B1    3 A1    4 A1    3 B1    1 B2
 -0.024
  5 A1

          Ground-State Mulliken Net Atomic Charges

     Atom                 Charge (a.u.)
  ----------------------------------------
      1 C                    -0.376196
      2 C                    -0.376196
      3 H                     0.178378
      4 H                     0.178378
      5 H                     0.037399
      6 H                     0.037399
      7 H                    -0.679165
  ----------------------------------------
  Sum of atomic charges =    -1.000000

                    Cartesian Multipole Moments
 -----------------------------------------------------------------
    Charge (ESU x 10^10)
                -4.8032
    Dipole Moment (Debye)
         X       0.0000      Y       0.0000      Z     -11.0340
       Tot      11.0340
    Quadrupole Moments (Debye-Ang)
        XX     -19.1549     XY      -0.0000     YY     -22.0287
        XZ       0.0000     YZ       0.0000     ZZ     -51.8402

 Total job time:  218.15s(wall), 607.09s(cpu)
        *  Thank you very much for using Q-Chem.  Have a nice day.  *
