 Q-Chem 5.4 (devel), Q-Chem, Inc., Pleasanton, CA (2021)
 Q-Chem 5.4.1 for Intel X86 EM64T Linux

User input:
--------------------------------------------------------------
$comment
	H_Ethylene CAP-ADC(2) 3z
	Basis: C: aDZ+4p1d, H: DZ
$end

$molecule
-1 1
C        -0.6645000000    0.0000000000   -0.2082049804
C         0.6645000000    0.0000000000   -0.2082049804
H        -1.1590800000    0.0000000000    0.7541440196
H         1.1590800000    0.0000000000    0.7541440196
H        -1.1590800000    0.0000000000   -1.1705529804
H         1.1590800000    0.0000000000   -1.1705529804
H         0.0000000000    0.0000000000    3.0139349415
$end

$rem
	basis gen
	method adc(2)
        EE_STATES [0,30,0,0]
	scf_convergence 8
	thresh 14
	adc_cap 1
	cap_type 2
	cap_x 1500
	cap_x_end 5000
	cap_x_step 500
	xc_grid 000250000974
	adc_print 3
	adc_davidson_conv 5
	adc_nguess_singles 100
	adc_nguess_doubles 50
	adc_davidson_maxsubspace 400
	adc_davidson_maxiter 40
	adc_davidson_thresh 14
	mem_total 95000
	threads 12
$end

$basis
C     1
S   9   1.00
      6.665000D+03           6.920000D-04
      1.000000D+03           5.329000D-03
      2.280000D+02           2.707700D-02
      6.471000D+01           1.017180D-01
      2.106000D+01           2.747400D-01
      7.495000D+00           4.485640D-01
      2.797000D+00           2.850740D-01
      5.215000D-01           1.520400D-02
      1.596000D-01          -3.191000D-03
S   9   1.00
      6.665000D+03          -1.460000D-04
      1.000000D+03          -1.154000D-03
      2.280000D+02          -5.725000D-03
      6.471000D+01          -2.331200D-02
      2.106000D+01          -6.395500D-02
      7.495000D+00          -1.499810D-01
      2.797000D+00          -1.272620D-01
      5.215000D-01           5.445290D-01
      1.596000D-01           5.804960D-01
S   1   1.00
      1.596000D-01           1.000000D+00
S   1   1.00
      0.0469000              1.0000000
P   4   1.00
      9.439000D+00           3.810900D-02
      2.002000D+00           2.094800D-01
      5.456000D-01           5.085570D-01
      1.517000D-01           4.688420D-01
P   1   1.00
      1.517000D-01           1.000000D+00
P   1   1.00
      0.0404100              1.0000000
P    1  1.00
     0.0269400   1.0
P    1  1.00
     0.0179600   1.0
P    1  1.00
     0.0119733   1.0
P    1  1.00
     0.0079822   1.0
D   1   1.00
      5.500000D-01           1.0000000
D   1   1.00
      0.1510000              1.0000000
D    1  1.00
     0.0755000   1.0
****
C     2
S   9   1.00
      6.665000D+03           6.920000D-04
      1.000000D+03           5.329000D-03
      2.280000D+02           2.707700D-02
      6.471000D+01           1.017180D-01
      2.106000D+01           2.747400D-01
      7.495000D+00           4.485640D-01
      2.797000D+00           2.850740D-01
      5.215000D-01           1.520400D-02
      1.596000D-01          -3.191000D-03
S   9   1.00
      6.665000D+03          -1.460000D-04
      1.000000D+03          -1.154000D-03
      2.280000D+02          -5.725000D-03
      6.471000D+01          -2.331200D-02
      2.106000D+01          -6.395500D-02
      7.495000D+00          -1.499810D-01
      2.797000D+00          -1.272620D-01
      5.215000D-01           5.445290D-01
      1.596000D-01           5.804960D-01
S   1   1.00
      1.596000D-01           1.000000D+00
S   1   1.00
      0.0469000              1.0000000
P   4   1.00
      9.439000D+00           3.810900D-02
      2.002000D+00           2.094800D-01
      5.456000D-01           5.085570D-01
      1.517000D-01           4.688420D-01
P   1   1.00
      1.517000D-01           1.000000D+00
P   1   1.00
      0.0404100              1.0000000
P    1  1.00
     0.0269400   1.0
P    1  1.00
     0.0179600   1.0
P    1  1.00
     0.0119733   1.0
P    1  1.00
     0.0079822   1.0
D   1   1.00
      5.500000D-01           1.0000000
D   1   1.00
      0.1510000              1.0000000
D    1  1.00
     0.0755000   1.0
****
H     3
S   4   1.00
      1.301000D+01           1.968500D-02
      1.962000D+00           1.379770D-01
      4.446000D-01           4.781480D-01
      1.220000D-01           5.012400D-01
S   1   1.00
      1.220000D-01           1.000000D+00
P   1   1.00
      7.270000D-01           1.0000000
****
H     4
S   4   1.00
      1.301000D+01           1.968500D-02
      1.962000D+00           1.379770D-01
      4.446000D-01           4.781480D-01
      1.220000D-01           5.012400D-01
S   1   1.00
      1.220000D-01           1.000000D+00
P   1   1.00
      7.270000D-01           1.0000000
****
H     5
S   4   1.00
      1.301000D+01           1.968500D-02
      1.962000D+00           1.379770D-01
      4.446000D-01           4.781480D-01
      1.220000D-01           5.012400D-01
S   1   1.00
      1.220000D-01           1.000000D+00
P   1   1.00
      7.270000D-01           1.0000000
****
H     6
S   4   1.00
      1.301000D+01           1.968500D-02
      1.962000D+00           1.379770D-01
      4.446000D-01           4.781480D-01
      1.220000D-01           5.012400D-01
S   1   1.00
      1.220000D-01           1.000000D+00
P   1   1.00
      7.270000D-01           1.0000000
****
H     7
S    4   1.00
      1.301000D+01           1.968500D-02
      1.962000D+00           1.379770D-01
      4.446000D-01           4.781480D-01
      1.220000D-01           5.012400D-01
S    1   1.00
      1.220000D-01           1.000000D+00
S    1   1.00
      0.0297400              1.0000000
P    1   1.00
      7.270000D-01           1.0000000
P    1   1.00
      0.1410000              1.0000000
****
$end
--------------------------------------------------------------

             Standard Nuclear Orientation (Angstroms)
    I     Atom           X                Y                Z
 ----------------------------------------------------------------
    1      C      -0.6645000000    -0.0000000000    -0.1895377601
    2      C       0.6645000000     0.0000000000    -0.1895377601
    3      H      -1.1590800000    -0.0000000000     0.7728112399
    4      H       1.1590800000     0.0000000000     0.7728112399
    5      H      -1.1590800000    -0.0000000000    -1.1518857601
    6      H       1.1590800000     0.0000000000    -1.1518857601
    7      H      -0.0000000000     0.0000000000     3.0326021618
 ----------------------------------------------------------------

   11     -78.5214420771      6.79E-09 Convergence criterion met
 Total energy in the final basis set = -78.52144208
  Term symbol:  1 (1) A2                                    R^2 =  3.60289e-09
  Excitation energy:                                               0.907051 eV
  Term symbol:  2 (1) A2                                    R^2 =  2.75642e-08
  Excitation energy:                                               1.741284 eV
  Term symbol:  3 (1) A2                                    R^2 =  1.37191e-07
  Excitation energy:                                               2.787363 eV
  Term symbol:  4 (1) A2                                    R^2 =  1.92558e-07
  Excitation energy:                                               3.744930 eV
  Term symbol:  5 (1) A2                                    R^2 =  2.29700e-07
  Excitation energy:                                               5.813816 eV
  Term symbol:  6 (1) A2                                    R^2 =  4.58992e-09
  Excitation energy:                                               5.933772 eV
  Term symbol:  7 (1) A2                                    R^2 =  1.33269e-07
  Excitation energy:                                               5.998107 eV
  Term symbol:  8 (1) A2                                    R^2 =  3.21589e-10
  Excitation energy:                                               6.138984 eV
  Term symbol:  9 (1) A2                                    R^2 =  5.27776e-10
  Excitation energy:                                               6.251313 eV
  Excited state 10 (singlet, A2)                                   [converged]
  Term symbol:  10 (1) A2                                   R^2 =  1.89537e-07
  Excitation energy:                                               6.472811 eV
  Excited state 11 (singlet, A2)                                   [converged]
  Term symbol:  11 (1) A2                                   R^2 =  1.80045e-07
  Excitation energy:                                               6.547227 eV
  Excited state 12 (singlet, A2)                                   [converged]
  Term symbol:  12 (1) A2                                   R^2 =  1.05748e-09
  Excitation energy:                                               6.590538 eV
  Excited state 13 (singlet, A2)                                   [converged]
  Term symbol:  13 (1) A2                                   R^2 =  4.61963e-10
  Excitation energy:                                               7.021810 eV
  Excited state 14 (singlet, A2)                                   [converged]
  Term symbol:  14 (1) A2                                   R^2 =  1.52041e-09
  Excitation energy:                                               7.157212 eV
  Excited state 15 (singlet, A2)                                   [converged]
  Term symbol:  15 (1) A2                                   R^2 =  3.47183e-07
  Excitation energy:                                               7.303962 eV
  Excited state 16 (singlet, A2)                                   [converged]
  Term symbol:  16 (1) A2                                   R^2 =  3.06221e-09
  Excitation energy:                                               7.376521 eV
  Excited state 17 (singlet, A2)                                   [converged]
  Excitation energy:                                               1.302459 eV
  Excitation energy:                                               1.169301 eV
  Excitation energy:                                               1.167740 eV
  Excitation energy:                                               0.954833 eV
  Excitation energy:                                               0.716858 eV
  Excitation energy:                                               0.627072 eV
  Excitation energy:                                               0.531786 eV
  Excitation energy:                                               0.331160 eV
  Excitation energy:                                               0.208605 eV
  Excitation energy:                                               0.116971 eV
  Excitation energy:                                               0.079139 eV
  Excitation energy:                                               7.926237 eV
  Excitation energy:                                               7.092004 eV
  Excitation energy:                                               6.045925 eV
  Excitation energy:                                               5.088358 eV
  Excitation energy:                                               3.019472 eV
  Excitation energy:                                               2.899516 eV
  Excitation energy:                                               2.835181 eV
  Excitation energy:                                               2.694305 eV
  Excitation energy:                                               2.581975 eV
  Excitation energy:                                               2.360477 eV
  Excitation energy:                                               2.286061 eV
  Excitation energy:                                               2.242750 eV
  Excitation energy:                                               1.811478 eV
  Excitation energy:                                               1.676077 eV
  Excitation energy:                                               1.529326 eV
  Excitation energy:                                               1.456767 eV
  Excitation energy:                                               1.410343 eV
  Excitation energy:                                               1.358466 eV
  Excitation energy:                                               1.225308 eV
  Excitation energy:                                               1.223746 eV
  Excitation energy:                                               1.010840 eV
  Excitation energy:                                               0.772864 eV
  Excitation energy:                                               0.683079 eV
  Excitation energy:                                               0.587792 eV
  Excitation energy:                                               0.387167 eV
  Excitation energy:                                               0.264612 eV
  Excitation energy:                                               0.172977 eV
  Excitation energy:                                               0.135146 eV
  Excitation energy:                                               0.056007 eV

             Orbital Energies (a.u.) and Symmetries
 --------------------------------------------------------------

 Alpha MOs, Restricted
 -- Occupied --
-11.082 -11.080  -0.887  -0.629  -0.504  -0.415  -0.359  -0.224
  1 A1    1 B1    2 A1    2 B1    3 A1    4 A1    3 B1    1 B2
 -0.045
  5 A1

 Beta MOs, Restricted
 -- Occupied --
-11.082 -11.080  -0.887  -0.629  -0.504  -0.415  -0.359  -0.224
  1 A1    1 B1    2 A1    2 B1    3 A1    4 A1    3 B1    1 B2
 -0.045
  5 A1

          Ground-State Mulliken Net Atomic Charges

     Atom                 Charge (a.u.)
  ----------------------------------------
      1 C                    -0.365976
      2 C                    -0.365976
      3 H                     0.113989
      4 H                     0.113989
      5 H                     0.009194
      6 H                     0.009194
      7 H                    -0.514415
  ----------------------------------------
  Sum of atomic charges =    -1.000000

                    Cartesian Multipole Moments
 -----------------------------------------------------------------
    Charge (ESU x 10^10)
                -4.8032
    Dipole Moment (Debye)
         X      -0.0000      Y      -0.0000      Z     -11.9592
       Tot      11.9592
    Quadrupole Moments (Debye-Ang)
        XX     -27.0546     XY       0.0000     YY     -26.3272
        XZ      -0.0000     YZ      -0.0000     ZZ     -60.4189

 Total job time:  391.07s(wall), 1568.91s(cpu)
        *  Thank you very much for using Q-Chem.  Have a nice day.  *
