 Q-Chem 5.4 (devel), Q-Chem, Inc., Pleasanton, CA (2021)
 Q-Chem 5.4.1 for Intel X86 EM64T Linux

User input:
--------------------------------------------------------------
#ethylene geometry from CRC Handbook 102nd Edition
$molecule
   0 1
   C1
   C2 C1 Rcc
   H1 C1 Rch C2 Acch
   H2 C1 Rch C2 Acch H1 180
   H3 C2 Rch C1 Acch H1 180
   H4 C2 Rch C1 Acch H2 180

   Rcc = 1.329
   Rch = 1.082
   Acch = 117.2
$end

$rem
   METHOD adc(2)
   BASIS cc-pvdz
   EA_STATES [0,0,3,0,0,0,0,0] #B2g?
$end

--------------------------------------------------------------

             Standard Nuclear Orientation (Angstroms)
    I     Atom           X                Y                Z
 ----------------------------------------------------------------
    1      C       0.6645000000    -0.0000000000    -0.0000000000
    2      C      -0.6645000000     0.0000000000     0.0000000000
    3      H       1.1590799571     0.9623485159     0.0000000000
    4      H       1.1590799571    -0.9623485159    -0.0000000000
    5      H      -1.1590799571    -0.9623485159    -0.0000000000
    6      H      -1.1590799571     0.9623485159     0.0000000000
 ----------------------------------------------------------------

   10     -78.0356905233      2.52E-09 Convergence criterion met
 Total energy in the final basis set = -78.03569052
  Term symbol:  1 (2) B2g                                   R^2 =  3.15441e-13
  Term symbol:  2 (2) B2g                                   R^2 =  6.23395e-14
  Term symbol:  3 (2) B2g                                   R^2 =  7.15886e-07

             Orbital Energies (a.u.) and Symmetries
 --------------------------------------------------------------

 Alpha MOs, Restricted
 -- Occupied --
-11.232 -11.230  -1.037  -0.778  -0.656  -0.563  -0.512  -0.374
  1 Ag    1 B3u   2 Ag    2 B3u   1 B2u   3 Ag    1 B1g   1 B1u

 Beta MOs, Restricted
 -- Occupied --
-11.232 -11.230  -1.037  -0.778  -0.656  -0.563  -0.512  -0.374
  1 Ag    1 B3u   2 Ag    2 B3u   1 B2u   3 Ag    1 B1g   1 B1u

          Ground-State Mulliken Net Atomic Charges

     Atom                 Charge (a.u.)
  ----------------------------------------
      1 C                    -0.094232
      2 C                    -0.094232
      3 H                     0.047116
      4 H                     0.047116
      5 H                     0.047116
      6 H                     0.047116
  ----------------------------------------
  Sum of atomic charges =     0.000000

                    Cartesian Multipole Moments
 -----------------------------------------------------------------
    Charge (ESU x 10^10)
                -0.0000
    Dipole Moment (Debye)
         X      -0.0000      Y      -0.0000      Z      -0.0000
       Tot       0.0000
    Quadrupole Moments (Debye-Ang)
        XX     -12.8285     XY       0.0000     YY     -11.8572
        XZ       0.0000     YZ      -0.0000     ZZ     -15.5683

 Total job time:  12.62s(wall), 12.57s(cpu)
        *  Thank you very much for using Q-Chem.  Have a nice day.  *
