 Q-Chem 5.4 (devel), Q-Chem, Inc., Pleasanton, CA (2021)
 Q-Chem 5.4.1 for Intel X86 EM64T Linux

User input:
--------------------------------------------------------------
#ethylene geometry from CRC Handbook 102nd Edition
$molecule
   0 1
   C1
   C2 C1 Rcc
   H1 C1 Rch C2 Acch
   H2 C1 Rch C2 Acch H1 180
   H3 C2 Rch C1 Acch H1 180
   H4 C2 Rch C1 Acch H2 180

   Rcc = 1.329
   Rch = 1.082
   Acch = 117.2
$end

$rem
   METHOD mp2
   PRINT_ORBITALS TRUE
   BASIS sto-3g
$end

--------------------------------------------------------------

             Standard Nuclear Orientation (Angstroms)
    I     Atom           X                Y                Z
 ----------------------------------------------------------------
    1      C       0.6645000000    -0.0000000000    -0.0000000000
    2      C      -0.6645000000     0.0000000000     0.0000000000
    3      H       1.1590799571     0.9623485159     0.0000000000
    4      H       1.1590799571    -0.9623485159    -0.0000000000
    5      H      -1.1590799571    -0.9623485159    -0.0000000000
    6      H      -1.1590799571     0.9623485159     0.0000000000
 ----------------------------------------------------------------

    6     -77.0669088278      1.51e-06  Convergence criterion met
 Total energy in the final basis set =      -77.0669088278
        MP2         total energy =                   -77.18888490 au

             Orbital Energies (a.u.) and Symmetries
 --------------------------------------------------------------

 Alpha MOs, Restricted
 -- Occupied --
-11.015 -11.014  -0.983  -0.733  -0.619  -0.510  -0.470  -0.325
  1 Ag    1 B3u   2 Ag    2 B3u   1 B2u   3 Ag    1 B1g   1 B1u

 Beta MOs, Restricted
 -- Occupied --
-11.015 -11.014  -0.983  -0.733  -0.619  -0.510  -0.470  -0.325
  1 Ag    1 B3u   2 Ag    2 B3u   1 B2u   3 Ag    1 B1g   1 B1u

          Ground-State Mulliken Net Atomic Charges

     Atom                 Charge (a.u.)
  ----------------------------------------
      1 C                    -0.129236
      2 C                    -0.129236
      3 H                     0.064618
      4 H                     0.064618
      5 H                     0.064618
      6 H                     0.064618
  ----------------------------------------
  Sum of atomic charges =     0.000000

                    Cartesian Multipole Moments
 -----------------------------------------------------------------
    Charge (ESU x 10^10)
                 0.0000
    Dipole Moment (Debye)
         X      -0.0000      Y       0.0000      Z       0.0000
       Tot       0.0000
    Quadrupole Moments (Debye-Ang)
        XX     -12.3802     XY      -0.0000     YY     -11.4912
        XZ       0.0000     YZ      -0.0000     ZZ     -13.4717

 Total job time:  0.13s(wall), 0.10s(cpu)
        *  Thank you very much for using Q-Chem.  Have a nice day.  *
