 Q-Chem 5.4 (devel), Q-Chem, Inc., Pleasanton, CA (2021)
 Q-Chem 5.4.1 for Intel X86 EM64T Linux

User input:
--------------------------------------------------------------
$comment
	H_Ethylene CAP-ADC(3) close y
	Basis: C: jun-TZ+4p1d, H: TZ
$end

$molecule
-1 1
C       0.6645000000     0.0000000000    -0.1470587929
C      -0.6645000000     0.0000000044    -0.1470587929
H       1.1590799243     0.9623488970    -0.1470589766
H      -1.1590799243     0.9623488970    -0.1470589766
H       1.1590799243    -0.9623488970    -0.1470589766
H      -1.1590799243    -0.9623488970    -0.1470589766
H       0.0000000000     0.0000000000     2.3529412071
$end

$rem
	basis gen
	method adc(3)
        EE_STATES [0,0,0,10] #B2 maybe?
	scf_convergence 8
	thresh 14
	adc_cap 1
	cap_type 2
	cap_x 1500
	cap_x_end 5000
	cap_x_step 500
	xc_grid 000250000974
	adc_print 3
	adc_davidson_conv 5
	adc_nguess_singles 100
	adc_nguess_doubles 50
	adc_davidson_maxsubspace 400
	adc_davidson_maxiter 40
	adc_davidson_thresh 14
	mem_total 95000
	threads 12
$end
$basis
C     1
S    8   1.00
   8236.0000000              0.0005310
   1235.0000000              0.0041080
    280.8000000              0.0210870
     79.2700000              0.0818530
     25.5900000              0.2348170
      8.9970000              0.4344010
      3.3190000              0.3461290
      0.3643000             -0.0089830
S    1   1.00
      0.9059000              1.0000000
S    8   1.00
   8236.0000000             -0.0001130
   1235.0000000             -0.0008780
    280.8000000             -0.0045400
     79.2700000             -0.0181330
     25.5900000             -0.0557600
      8.9970000             -0.1268950
      3.3190000             -0.1703520
      0.3643000              0.5986840
S    1   1.00
      0.1285000              1.0000000
S    1   1.00
      0.0440200              1.0000000
P    3   1.00
     18.7100000              0.0140310
      4.1330000              0.0868660
      1.2000000              0.2902160
P    1   1.00
      0.3827000              1.0000000
P    1   1.00
      0.1209000              1.0000000
P    1   1.00
      0.0356900              1.0000000
P    1   1.0
      0.0237933 1.0
P    1   1.0
      0.0158622 1.0
P    1   1.0
      0.0105748 1.0
P    1   1.0
      0.0070498 1.0
D    1   1.00
      1.0970000              1.0000000
D    1   1.00
      0.3180000              1.0000000
D    1   1.00
      0.1000000              1.0000000
D    1   1.00
      0.0500000 1.0
F    1   1.00
      0.7610000              1.0000000
****
C     2
S    8   1.00
   8236.0000000              0.0005310
   1235.0000000              0.0041080
    280.8000000              0.0210870
     79.2700000              0.0818530
     25.5900000              0.2348170
      8.9970000              0.4344010
      3.3190000              0.3461290
      0.3643000             -0.0089830
S    1   1.00
      0.9059000              1.0000000
S    8   1.00
   8236.0000000             -0.0001130
   1235.0000000             -0.0008780
    280.8000000             -0.0045400
     79.2700000             -0.0181330
     25.5900000             -0.0557600
      8.9970000             -0.1268950
      3.3190000             -0.1703520
      0.3643000              0.5986840
S    1   1.00
      0.1285000              1.0000000
S    1   1.00
      0.0440200              1.0000000
P    3   1.00
     18.7100000              0.0140310
      4.1330000              0.0868660
      1.2000000              0.2902160
P    1   1.00
      0.3827000              1.0000000
P    1   1.00
      0.1209000              1.0000000
P    1   1.00
      0.0356900              1.0000000
P    1   1.0
      0.0237933 1.0
P    1   1.0
      0.0158622 1.0
P    1   1.0
      0.0105748 1.0
P    1   1.0
      0.0070498 1.0
D    1   1.00
      1.0970000              1.0000000
D    1   1.00
      0.3180000              1.0000000
D    1   1.00
      0.1000000              1.0000000
D    1   1.00
      0.0500000 1.0
F    1   1.00
      0.7610000              1.0000000
****
H     3
cc-pVTZ
****
H     4
cc-pVTZ
****
H     5
cc-pVTZ
****
H     6
cc-pVTZ
****
H     7
aug-cc-pVTZ
****
$end
--------------------------------------------------------------

             Standard Nuclear Orientation (Angstroms)
    I     Atom           X                Y                Z
 ----------------------------------------------------------------
    1      C       0.6645000000    -0.0000000001    -0.1470587803
    2      C      -0.6645000000     0.0000000009    -0.1470587803
    3      H       1.1590799219     0.9623488981    -0.1470589657
    4      H      -1.1590799219     0.9623488981    -0.1470589657
    5      H       1.1590799219    -0.9623488981    -0.1470589657
    6      H      -1.1590799219    -0.9623489017    -0.1470589623
    7      H      -0.0000000000     0.0000000026     2.3529412197
 ----------------------------------------------------------------

   12     -78.5183855023      4.26E-09 Convergence criterion met
 Total energy in the final basis set = -78.51838550
  Excited state 1 (singlet, B2)                                    [converged]
  Term symbol:  1 (1) B2                                    R^2 =  6.59387e-13
  Excitation energy:                                               0.320416 eV
  Excited state 2 (singlet, B2)                                    [converged]
  Term symbol:  2 (1) B2                                    R^2 =  2.26520e-12
  Excitation energy:                                               0.895240 eV
  Excited state 3 (singlet, B2)                                    [converged]
  Term symbol:  3 (1) B2                                    R^2 =  8.29012e-12
  Excitation energy:                                               1.936088 eV
  Excited state 4 (singlet, B2)                                    [converged]
  Term symbol:  4 (1) B2                                    R^2 =  6.58612e-11
  Excitation energy:                                               3.668255 eV
  Excited state 5 (singlet, B2)                                    [converged]
  Term symbol:  5 (1) B2                                    R^2 =  1.20771e-10
  Excitation energy:                                               3.700042 eV
  Excited state 6 (singlet, B2)                                    [converged]
  Term symbol:  6 (1) B2                                    R^2 =  1.04078e-07
  Excitation energy:                                               4.344341 eV
  Excited state 7 (singlet, B2)                                    [converged]
  Term symbol:  7 (1) B2                                    R^2 =  1.44390e-08
  Excitation energy:                                               4.845718 eV
  Excited state 8 (singlet, B2)                                    [converged]
  Term symbol:  8 (1) B2                                    R^2 =  5.82308e-07
  Excitation energy:                                               5.050032 eV
  Excited state 9 (singlet, B2)                                    [converged]
  Term symbol:  9 (1) B2                                    R^2 =  2.65973e-08
  Excitation energy:                                               5.943657 eV
  Excited state 10 (singlet, B2)                                    [converged]
  Term symbol:  10 (1) B2                                   R^2 =  7.62146e-06
  Excitation energy:                                               6.202927 eV
  Excitation energy:                                               0.574824 eV
  Excitation energy:                                               1.615672 eV
  Excitation energy:                                               1.040848 eV
  Excitation energy:                                               3.347839 eV
  Excitation energy:                                               2.773015 eV
  Excitation energy:                                               1.732167 eV
  Excitation energy:                                               3.379627 eV
  Excitation energy:                                               2.804802 eV
  Excitation energy:                                               1.763955 eV
  Excitation energy:                                               0.031788 eV
  Excitation energy:                                               4.023925 eV
  Excitation energy:                                               3.449101 eV
  Excitation energy:                                               2.408253 eV
  Excitation energy:                                               0.676086 eV
  Excitation energy:                                               0.644298 eV
  Excitation energy:                                               4.525302 eV
  Excitation energy:                                               3.950478 eV
  Excitation energy:                                               2.909630 eV
  Excitation energy:                                               1.177463 eV
  Excitation energy:                                               1.145675 eV
  Excitation energy:                                               0.501377 eV
  Excitation energy:                                               4.729616 eV
  Excitation energy:                                               4.154792 eV
  Excitation energy:                                               3.113944 eV
  Excitation energy:                                               1.381777 eV
  Excitation energy:                                               1.349989 eV
  Excitation energy:                                               0.705691 eV
  Excitation energy:                                               0.204314 eV
  Excitation energy:                                               5.623242 eV
  Excitation energy:                                               5.048417 eV
  Excitation energy:                                               4.007570 eV
  Excitation energy:                                               2.275403 eV
  Excitation energy:                                               2.243615 eV
  Excitation energy:                                               1.599317 eV
  Excitation energy:                                               1.097940 eV
  Excitation energy:                                               0.893626 eV
  Excitation energy:                                               5.882511 eV
  Excitation energy:                                               5.307686 eV
  Excitation energy:                                               4.266839 eV
  Excitation energy:                                               2.534672 eV
  Excitation energy:                                               2.502884 eV
  Excitation energy:                                               1.858586 eV
  Excitation energy:                                               1.357209 eV
  Excitation energy:                                               1.152895 eV
  Excitation energy:                                               0.259269 eV

             Orbital Energies (a.u.) and Symmetries
 --------------------------------------------------------------

 Alpha MOs, Restricted
 -- Occupied --
-11.066 -11.065  -0.876  -0.621  -0.500  -0.408  -0.357  -0.219
  1 A1    1 B1    2 A1    2 B1    1 B2    3 A1    1 A2    4 A1
 -0.027
  5 A1

 Beta MOs, Restricted
 -- Occupied --
-11.066 -11.065  -0.876  -0.621  -0.500  -0.408  -0.357  -0.219
  1 A1    1 B1    2 A1    2 B1    1 B2    3 A1    1 A2    4 A1
 -0.027
  5 A1

          Ground-State Mulliken Net Atomic Charges

     Atom                 Charge (a.u.)
  ----------------------------------------
      1 C                    -0.491319
      2 C                    -0.491306
      3 H                     0.112424
      4 H                     0.112422
      5 H                     0.112424
      6 H                     0.112421
      7 H                    -0.467066
  ----------------------------------------
  Sum of atomic charges =    -1.000000

                    Cartesian Multipole Moments
 -----------------------------------------------------------------
    Charge (ESU x 10^10)
                -4.8032
    Dipole Moment (Debye)
         X       0.0000      Y      -0.0000      Z     -10.3893
       Tot      10.3893
    Quadrupole Moments (Debye-Ang)
        XX     -27.0333     XY       0.0000     YY     -23.1535
        XZ      -0.0000     YZ       0.0000     ZZ     -55.9332

 Total job time:  1467.89s(wall), 10439.24s(cpu)
        *  Thank you very much for using Q-Chem.  Have a nice day.  *
