 Q-Chem 5.4 (devel), Q-Chem, Inc., Pleasanton, CA (2021)
 Q-Chem 5.4.1 for Intel X86 EM64T Linux

User input:
--------------------------------------------------------------
$molecule
-1 1
C        -0.6645000000    0.0000000000   -0.2082049804
C         0.6645000000    0.0000000000   -0.2082049804
H        -1.1590800000    0.0000000000    0.7541440196
H         1.1590800000    0.0000000000    0.7541440196
H        -1.1590800000    0.0000000000   -1.1705529804
H         1.1590800000    0.0000000000   -1.1705529804
H         0.0000000000    0.0000000000    3.0139349415
$end

$rem
   METHOD adc(2)
   BASIS gen
   PURECART 11
   EE_STATES [0,10,0,0]
   scf_convergence 8
   ADC_DAVIDSON_MAXITER 120
   ADC_DAVIDSON_MAXSUBSPACE 200
   adc_nguess_singles 100
   THRESH 14
   S2THRESH 14
   adc_davidson_conv 5
   adc_davidson_thresh 14
   THREADS 10
   MEM_TOTAL 95000
   STATE_ANALYSIS TRUE
$end
$basis
C 1
S   9   1.00
      6.665000D+03           6.920000D-04
      1.000000D+03           5.329000D-03
      2.280000D+02           2.707700D-02
      6.471000D+01           1.017180D-01
      2.106000D+01           2.747400D-01
      7.495000D+00           4.485640D-01
      2.797000D+00           2.850740D-01
      5.215000D-01           1.520400D-02
      1.596000D-01          -3.191000D-03
S   9   1.00
      6.665000D+03          -1.460000D-04
      1.000000D+03          -1.154000D-03
      2.280000D+02          -5.725000D-03
      6.471000D+01          -2.331200D-02
      2.106000D+01          -6.395500D-02
      7.495000D+00          -1.499810D-01
      2.797000D+00          -1.272620D-01
      5.215000D-01           5.445290D-01
      1.596000D-01           5.804960D-01
S   1   1.00
      1.596000D-01           1.000000D+00
S   1   1.00
      0.0469000              1.0000000
P   4   1.00
      9.439000D+00           3.810900D-02
      2.002000D+00           2.094800D-01
      5.456000D-01           5.085570D-01
      1.517000D-01           4.688420D-01
P   1   1.00
      1.517000D-01           1.000000D+00
P   1   1.00
      0.0573089      1.0000000
P   1   1.00
      0.0286544      1.0000000
D   1   1.00
      5.500000D-01           1.0000000
****
C 2
S   9   1.00
      6.665000D+03           6.920000D-04
      1.000000D+03           5.329000D-03
      2.280000D+02           2.707700D-02
      6.471000D+01           1.017180D-01
      2.106000D+01           2.747400D-01
      7.495000D+00           4.485640D-01
      2.797000D+00           2.850740D-01
      5.215000D-01           1.520400D-02
      1.596000D-01          -3.191000D-03
S   9   1.00
      6.665000D+03          -1.460000D-04
      1.000000D+03          -1.154000D-03
      2.280000D+02          -5.725000D-03
      6.471000D+01          -2.331200D-02
      2.106000D+01          -6.395500D-02
      7.495000D+00          -1.499810D-01
      2.797000D+00          -1.272620D-01
      5.215000D-01           5.445290D-01
      1.596000D-01           5.804960D-01
S   1   1.00
      1.596000D-01           1.000000D+00
S   1   1.00
      0.0469000              1.0000000
P   4   1.00
      9.439000D+00           3.810900D-02
      2.002000D+00           2.094800D-01
      5.456000D-01           5.085570D-01
      1.517000D-01           4.688420D-01
P   1   1.00
      1.517000D-01           1.000000D+00
P   1   1.00
      0.0573089      1.0000000
P   1   1.00
      0.0286544      1.0000000
D   1   1.00
      5.500000D-01           1.0000000
****
H 3
cc-pVDZ
****
H 4
cc-pVDZ
****
H 5
cc-pVDZ
****
H 6
cc-pVDZ
****
H 7
aug-cc-pVDZ
****
$end
--------------------------------------------------------------

             Standard Nuclear Orientation (Angstroms)
    I     Atom           X                Y                Z
 ----------------------------------------------------------------
    1      C      -0.6645000000    -0.0000000000    -0.1895377601
    2      C       0.6645000000     0.0000000000    -0.1895377601
    3      H      -1.1590800000    -0.0000000000     0.7728112399
    4      H       1.1590800000     0.0000000000     0.7728112399
    5      H      -1.1590800000    -0.0000000000    -1.1518857601
    6      H       1.1590800000     0.0000000000    -1.1518857601
    7      H      -0.0000000000     0.0000000000     3.0326021618
 ----------------------------------------------------------------

   12     -78.5130893721      1.59E-09 Convergence criterion met
 Total energy in the final basis set = -78.51308937
  Excited state 1 (singlet, A2)                                    [converged]
  Term symbol:  1 (1) A2                                    R^2 =  3.30500e-09
  Excitation energy:                                               2.257401 eV
  Excited state 2 (singlet, A2)                                    [converged]
  Term symbol:  2 (1) A2                                    R^2 =  8.99366e-09
  Excitation energy:                                               3.661238 eV
  Excited state 3 (singlet, A2)                                    [converged]
  Term symbol:  3 (1) A2                                    R^2 =  1.34460e-08
  Excitation energy:                                               6.477347 eV
  Excited state 4 (singlet, A2)                                    [converged]
  Term symbol:  4 (1) A2                                    R^2 =  3.39893e-08
  Excitation energy:                                               8.013409 eV
  Excited state 5 (singlet, A2)                                    [converged]
  Term symbol:  5 (1) A2                                    R^2 =  6.29232e-08
  Excitation energy:                                               8.779137 eV
  Excited state 6 (singlet, A2)                                    [converged]
  Term symbol:  6 (1) A2                                    R^2 =  2.80976e-07
  Excitation energy:                                               9.592570 eV
  Excited state 7 (singlet, A2)                                    [converged]
  Term symbol:  7 (1) A2                                    R^2 =  5.70416e-07
  Excitation energy:                                               9.691853 eV
  Excited state 8 (singlet, A2)                                    [converged]
  Term symbol:  8 (1) A2                                    R^2 =  2.56669e-07
  Excitation energy:                                               9.832173 eV
  Excited state 9 (singlet, A2)                                    [converged]
  Term symbol:  9 (1) A2                                    R^2 =  4.52606e-09
  Excitation energy:                                              10.591447 eV
  Excited state 10 (singlet, A2)                                    [converged]
  Term symbol:  10 (1) A2                                   R^2 =  1.45759e-06
  Excitation energy:                                              11.465033 eV

             Orbital Energies (a.u.) and Symmetries
 --------------------------------------------------------------

 Alpha MOs, Restricted
 -- Occupied --
-11.077 -11.075  -0.883  -0.625  -0.499  -0.410  -0.354  -0.219
  1 A1    1 B1    2 A1    2 B1    3 A1    4 A1    3 B1    1 B2
 -0.031
  5 A1

 Beta MOs, Restricted
 -- Occupied --
-11.077 -11.075  -0.883  -0.625  -0.499  -0.410  -0.354  -0.219
  1 A1    1 B1    2 A1    2 B1    3 A1    4 A1    3 B1    1 B2
 -0.031
  5 A1

          Ground-State Mulliken Net Atomic Charges

     Atom                 Charge (a.u.)
  ----------------------------------------
      1 C                    -0.344680
      2 C                    -0.344680
      3 H                     0.143464
      4 H                     0.143464
      5 H                     0.024861
      6 H                     0.024861
      7 H                    -0.647290
  ----------------------------------------
  Sum of atomic charges =    -1.000000

                    Cartesian Multipole Moments
 -----------------------------------------------------------------
    Charge (ESU x 10^10)
                -4.8032
    Dipole Moment (Debye)
         X       0.0000      Y       0.0000      Z     -11.6735
       Tot      11.6735
    Quadrupole Moments (Debye-Ang)
        XX     -19.9929     XY       0.0000     YY     -22.8025
        XZ       0.0000     YZ       0.0000     ZZ     -58.5942

 Total job time:  113.68s(wall), 152.71s(cpu)
        *  Thank you very much for using Q-Chem.  Have a nice day.  *
