 Q-Chem 5.4 (devel), Q-Chem, Inc., Pleasanton, CA (2021)
 Q-Chem 5.4.1 for Intel X86 EM64T Linux

User input:
--------------------------------------------------------------
$molecule
-1 1
C        -0.6645000000    0.0000000000   -0.2082049804
C         0.6645000000    0.0000000000   -0.2082049804
H        -1.1590800000    0.0000000000    0.7541440196
H         1.1590800000    0.0000000000    0.7541440196
H        -1.1590800000    0.0000000000   -1.1705529804
H         1.1590800000    0.0000000000   -1.1705529804
H         0.0000000000    0.0000000000    3.0139349415
$end

$rem
   METHOD adc(2)
   BASIS gen
   PURECART 11
   EE_STATES [0,10,0,0]
   scf_convergence 8
   ADC_DAVIDSON_MAXITER 120
   ADC_DAVIDSON_MAXSUBSPACE 200
   adc_nguess_singles 100
   THRESH 14
   S2THRESH 14
   adc_davidson_conv 5
   adc_davidson_thresh 14
   THREADS 10
   MEM_TOTAL 95000
   STATE_ANALYSIS TRUE
$end
$basis
C 1
S   9   1.00
      6.665000D+03           6.920000D-04
      1.000000D+03           5.329000D-03
      2.280000D+02           2.707700D-02
      6.471000D+01           1.017180D-01
      2.106000D+01           2.747400D-01
      7.495000D+00           4.485640D-01
      2.797000D+00           2.850740D-01
      5.215000D-01           1.520400D-02
      1.596000D-01          -3.191000D-03
S   9   1.00
      6.665000D+03          -1.460000D-04
      1.000000D+03          -1.154000D-03
      2.280000D+02          -5.725000D-03
      6.471000D+01          -2.331200D-02
      2.106000D+01          -6.395500D-02
      7.495000D+00          -1.499810D-01
      2.797000D+00          -1.272620D-01
      5.215000D-01           5.445290D-01
      1.596000D-01           5.804960D-01
S   1   1.00
      1.596000D-01           1.000000D+00
S   1   1.00
      0.0469000              1.0000000
P   4   1.00
      9.439000D+00           3.810900D-02
      2.002000D+00           2.094800D-01
      5.456000D-01           5.085570D-01
      1.517000D-01           4.688420D-01
P   1   1.00
      1.517000D-01           1.000000D+00
P   1   1.00
      0.0960767      1.0000000
P   1   1.00
      0.0480383      1.0000000
D   1   1.00
      5.500000D-01           1.0000000
****
C 2
S   9   1.00
      6.665000D+03           6.920000D-04
      1.000000D+03           5.329000D-03
      2.280000D+02           2.707700D-02
      6.471000D+01           1.017180D-01
      2.106000D+01           2.747400D-01
      7.495000D+00           4.485640D-01
      2.797000D+00           2.850740D-01
      5.215000D-01           1.520400D-02
      1.596000D-01          -3.191000D-03
S   9   1.00
      6.665000D+03          -1.460000D-04
      1.000000D+03          -1.154000D-03
      2.280000D+02          -5.725000D-03
      6.471000D+01          -2.331200D-02
      2.106000D+01          -6.395500D-02
      7.495000D+00          -1.499810D-01
      2.797000D+00          -1.272620D-01
      5.215000D-01           5.445290D-01
      1.596000D-01           5.804960D-01
S   1   1.00
      1.596000D-01           1.000000D+00
S   1   1.00
      0.0469000              1.0000000
P   4   1.00
      9.439000D+00           3.810900D-02
      2.002000D+00           2.094800D-01
      5.456000D-01           5.085570D-01
      1.517000D-01           4.688420D-01
P   1   1.00
      1.517000D-01           1.000000D+00
P   1   1.00
      0.0960767      1.0000000
P   1   1.00
      0.0480383      1.0000000
D   1   1.00
      5.500000D-01           1.0000000
****
H 3
cc-pVDZ
****
H 4
cc-pVDZ
****
H 5
cc-pVDZ
****
H 6
cc-pVDZ
****
H 7
aug-cc-pVDZ
****
$end
--------------------------------------------------------------

             Standard Nuclear Orientation (Angstroms)
    I     Atom           X                Y                Z
 ----------------------------------------------------------------
    1      C      -0.6645000000    -0.0000000000    -0.1895377601
    2      C       0.6645000000     0.0000000000    -0.1895377601
    3      H      -1.1590800000    -0.0000000000     0.7728112399
    4      H       1.1590800000     0.0000000000     0.7728112399
    5      H      -1.1590800000    -0.0000000000    -1.1518857601
    6      H       1.1590800000     0.0000000000    -1.1518857601
    7      H      -0.0000000000     0.0000000000     3.0326021618
 ----------------------------------------------------------------

   11     -78.5082631277      8.62E-09 Convergence criterion met
 Total energy in the final basis set = -78.50826313
  Excited state 1 (singlet, A2)                                    [converged]
  Term symbol:  1 (1) A2                                    R^2 =  2.15899e-11
  Excitation energy:                                               2.543054 eV
  Excited state 2 (singlet, A2)                                    [converged]
  Term symbol:  2 (1) A2                                    R^2 =  5.50720e-11
  Excitation energy:                                               4.907788 eV
  Excited state 3 (singlet, A2)                                    [converged]
  Term symbol:  3 (1) A2                                    R^2 =  1.34924e-10
  Excitation energy:                                               7.046694 eV
  Excited state 4 (singlet, A2)                                    [converged]
  Term symbol:  4 (1) A2                                    R^2 =  2.24934e-10
  Excitation energy:                                               8.974796 eV
  Excited state 5 (singlet, A2)                                    [converged]
  Term symbol:  5 (1) A2                                    R^2 =  9.35539e-10
  Excitation energy:                                               9.591648 eV
  Excited state 6 (singlet, A2)                                    [converged]
  Term symbol:  6 (1) A2                                    R^2 =  2.11870e-09
  Excitation energy:                                              10.455457 eV
  Excited state 7 (singlet, A2)                                    [converged]
  Term symbol:  7 (1) A2                                    R^2 =  3.11690e-09
  Excitation energy:                                              10.849040 eV
  Excited state 8 (singlet, A2)                                    [converged]
  Term symbol:  8 (1) A2                                    R^2 =  2.62795e-08
  Excitation energy:                                              12.123574 eV
  Excited state 9 (singlet, A2)                                    [converged]
  Term symbol:  9 (1) A2                                    R^2 =  4.01204e-07
  Excitation energy:                                              12.670069 eV
  Excited state 10 (singlet, A2)                                    [converged]
  Term symbol:  10 (1) A2                                   R^2 =  4.68817e-07
  Excitation energy:                                              12.723923 eV

             Orbital Energies (a.u.) and Symmetries
 --------------------------------------------------------------

 Alpha MOs, Restricted
 -- Occupied --
-11.072 -11.070  -0.877  -0.620  -0.493  -0.405  -0.348  -0.214
  1 A1    1 B1    2 A1    2 B1    3 A1    4 A1    3 B1    1 B2
 -0.019
  5 A1

 Beta MOs, Restricted
 -- Occupied --
-11.072 -11.070  -0.877  -0.620  -0.493  -0.405  -0.348  -0.214
  1 A1    1 B1    2 A1    2 B1    3 A1    4 A1    3 B1    1 B2
 -0.019
  5 A1

          Ground-State Mulliken Net Atomic Charges

     Atom                 Charge (a.u.)
  ----------------------------------------
      1 C                    -0.386551
      2 C                    -0.386551
      3 H                     0.195710
      4 H                     0.195710
      5 H                     0.051879
      6 H                     0.051879
      7 H                    -0.722076
  ----------------------------------------
  Sum of atomic charges =    -1.000000

                    Cartesian Multipole Moments
 -----------------------------------------------------------------
    Charge (ESU x 10^10)
                -4.8032
    Dipole Moment (Debye)
         X      -0.0000      Y       0.0000      Z     -11.9879
       Tot      11.9879
    Quadrupole Moments (Debye-Ang)
        XX     -18.7367     XY       0.0000     YY     -21.6145
        XZ      -0.0000     YZ       0.0000     ZZ     -55.4143

 Total job time:  120.66s(wall), 179.69s(cpu)
        *  Thank you very much for using Q-Chem.  Have a nice day.  *
