 Q-Chem 5.4 (devel), Q-Chem, Inc., Pleasanton, CA (2021)
 Q-Chem 5.4.1 for Intel X86 EM64T Linux

User input:
--------------------------------------------------------------
#ethylene geometry from CRC Handbook 102nd Edition
$molecule
-1 1
C        -0.6645000000    0.0000000000    1.1619088658
C         0.6645000000    0.0000000000    1.1619088658
H        -1.1590800000    0.0000000000    0.1995598658
H         1.1590800000    0.0000000000    0.1995598658
H        -1.1590800000    0.0000000000    2.1242568658
H         1.1590800000    0.0000000000    2.1242568658
O         0.0000000000    0.0000000000   -1.5841414040
H         0.0000000000    0.0000000000   -2.5471307683
$end

$rem
   METHOD hf
   PRINT_ORBITALS TRUE
   BASIS sto-3g
$end

--------------------------------------------------------------

             Standard Nuclear Orientation (Angstroms)
    I     Atom           X                Y                Z
 ----------------------------------------------------------------
    1      C      -0.6645000000    -0.0000000000     1.0270977517
    2      C       0.6645000000     0.0000000000     1.0270977517
    3      H      -1.1590800000    -0.0000000000     0.0647487517
    4      H       1.1590800000     0.0000000000     0.0647487517
    5      H      -1.1590800000    -0.0000000000     1.9894457517
    6      H       1.1590800000     0.0000000000     1.9894457517
    7      O       0.0000000000    -0.0000000000    -1.7189525181
    8      H       0.0000000000    -0.0000000000    -2.6819418824
 ----------------------------------------------------------------

    6    -151.1385315921      7.04e-06  Convergence criterion met
 Total energy in the final basis set =     -151.1385315921

             Orbital Energies (a.u.) and Symmetries
 --------------------------------------------------------------

 Alpha MOs, Restricted
 -- Occupied --
-19.418 -10.812 -10.811  -0.788  -0.626  -0.546  -0.417  -0.319
  1 A1    2 A1    1 B1    3 A1    4 A1    2 B1    5 A1    6 A1
 -0.273  -0.132   0.046   0.220   0.222
  3 B1    1 B2    7 A1    2 B2    4 B1

 Beta MOs, Restricted
 -- Occupied --
-19.418 -10.812 -10.811  -0.788  -0.626  -0.546  -0.417  -0.319
  1 A1    2 A1    1 B1    3 A1    4 A1    2 B1    5 A1    6 A1
 -0.273  -0.132   0.046   0.220   0.222
  3 B1    1 B2    7 A1    2 B2    4 B1

          Ground-State Mulliken Net Atomic Charges

     Atom                 Charge (a.u.)
  ----------------------------------------
      1 C                    -0.153554
      2 C                    -0.153554
      3 H                     0.125271
      4 H                     0.125271
      5 H                     0.006589
      6 H                     0.006589
      7 O                    -0.795915
      8 H                    -0.160697
  ----------------------------------------
  Sum of atomic charges =    -1.000000

                    Cartesian Multipole Moments
 -----------------------------------------------------------------
    Charge (ESU x 10^10)
                -4.8032
    Dipole Moment (Debye)
         X      -0.0000      Y       0.0000      Z       6.9844
       Tot       6.9844
    Quadrupole Moments (Debye-Ang)
        XX     -18.4967     XY       0.0000     YY     -19.4126
        XZ       0.0000     YZ      -0.0000     ZZ     -33.5114

 Total job time:  0.14s(wall), 0.11s(cpu)
        *  Thank you very much for using Q-Chem.  Have a nice day.  *
