 Q-Chem 5.4 (devel), Q-Chem, Inc., Pleasanton, CA (2021)
 Q-Chem 5.4.1 for Intel X86 EM64T Linux

User input:
--------------------------------------------------------------
#ethylene geometry from CRC Handbook 102nd Edition
$molecule
0 2
C        -0.6645000000    0.0000000000    1.1619088658
C         0.6645000000    0.0000000000    1.1619088658
H        -1.1590800000    0.0000000000    0.1995598658
H         1.1590800000    0.0000000000    0.1995598658
H        -1.1590800000    0.0000000000    2.1242568658
H         1.1590800000    0.0000000000    2.1242568658
O         0.0000000000    0.0000000000   -1.5841414040
H         0.0000000000    0.0000000000   -2.5471307683
$end

$rem
   METHOD hf
   PRINT_ORBITALS TRUE
   BASIS sto-3g
$end

--------------------------------------------------------------

             Standard Nuclear Orientation (Angstroms)
    I     Atom           X                Y                Z
 ----------------------------------------------------------------
    1      C      -0.6645000000    -0.0000000000     1.0270977517
    2      C       0.6645000000     0.0000000000     1.0270977517
    3      H      -1.1590800000    -0.0000000000     0.0647487517
    4      H       1.1590800000     0.0000000000     0.0647487517
    5      H      -1.1590800000    -0.0000000000     1.9894457517
    6      H       1.1590800000     0.0000000000     1.9894457517
    7      O       0.0000000000    -0.0000000000    -1.7189525181
    8      H       0.0000000000    -0.0000000000    -2.6819418824
 ----------------------------------------------------------------

   11    -151.4245692548      1.81e-06  Convergence criterion met
 Total energy in the final basis set =     -151.4245692548

             Orbital Energies (a.u.) and Symmetries
 --------------------------------------------------------------

 Alpha MOs, Unrestricted
 -- Occupied --
-20.299 -10.994 -10.993  -1.306  -0.965  -0.717  -0.619  -0.545
  1 A1    2 A1    1 B1    3 A1    4 A1    2 B1    5 A1    6 A1
 -0.536  -0.490  -0.470  -0.423  -0.307
  1 B2    7 A1    3 B1    4 B1    2 B2

 Beta MOs, Unrestricted
 -- Occupied --
-20.270 -10.994 -10.993  -1.142  -0.965  -0.717  -0.611  -0.510
  1 A1    2 A1    1 B1    3 A1    4 A1    2 B1    5 A1    6 A1
 -0.484  -0.460  -0.381  -0.307
  7 A1    3 B1    4 B1    1 B2

          Ground-State Mulliken Net Atomic Charges

     Atom                 Charge (a.u.)    Spin (a.u.)
  --------------------------------------------------------
      1 C                    -0.138417      -0.000876
      2 C                    -0.138417      -0.000876
      3 H                     0.077017       0.000257
      4 H                     0.077017       0.000257
      5 H                     0.055354      -0.000047
      6 H                     0.055354      -0.000047
      7 O                    -0.160539       1.069447
      8 H                     0.172630      -0.068112
  --------------------------------------------------------
  Sum of atomic charges =     0.000000

                    Cartesian Multipole Moments
 -----------------------------------------------------------------
    Charge (ESU x 10^10)
                 0.0000
    Dipole Moment (Debye)
         X      -0.0000      Y       0.0000      Z      -1.6181
       Tot       1.6181
    Quadrupole Moments (Debye-Ang)
        XX     -17.8011     XY       0.0000     YY     -18.0553
        XZ      -0.0000     YZ      -0.0000     ZZ     -11.2256

 Total job time:  0.17s(wall), 0.15s(cpu)
        *  Thank you very much for using Q-Chem.  Have a nice day.  *
