 Q-Chem 5.4 (devel), Q-Chem, Inc., Pleasanton, CA (2021)
 Q-Chem 5.4.1 for Intel X86 EM64T Linux

User input:
--------------------------------------------------------------
$comment
	H_Ethylene CAP-ADC(2) 10z
	Basis: C: aDZ+4p1d, H: DZ
$end

$molecule
-1 1
C        -0.6645000000    0.0000000000   -0.2082049804
C         0.6645000000    0.0000000000   -0.2082049804
H        -1.1590800000    0.0000000000    0.7541440196
H         1.1590800000    0.0000000000    0.7541440196
H        -1.1590800000    0.0000000000   -1.1705529804
H         1.1590800000    0.0000000000   -1.1705529804
H         0.0000000000    0.0000000000   10.0
$end

$rem
	basis gen
	method adc(2)
        EE_STATES [0,30,0,0]
	scf_convergence 8
	thresh 14
	adc_cap 1
	cap_type 2
	cap_x 1500
	cap_x_end 5000
	cap_x_step 500
	xc_grid 000250000974
	adc_print 3
	adc_davidson_conv 5
	adc_nguess_singles 100
	adc_nguess_doubles 50
	adc_davidson_maxsubspace 400
	adc_davidson_maxiter 40
	adc_davidson_thresh 14
	mem_total 95000
	threads 12
$end

$basis
C     1
S   9   1.00
      6.665000D+03           6.920000D-04
      1.000000D+03           5.329000D-03
      2.280000D+02           2.707700D-02
      6.471000D+01           1.017180D-01
      2.106000D+01           2.747400D-01
      7.495000D+00           4.485640D-01
      2.797000D+00           2.850740D-01
      5.215000D-01           1.520400D-02
      1.596000D-01          -3.191000D-03
S   9   1.00
      6.665000D+03          -1.460000D-04
      1.000000D+03          -1.154000D-03
      2.280000D+02          -5.725000D-03
      6.471000D+01          -2.331200D-02
      2.106000D+01          -6.395500D-02
      7.495000D+00          -1.499810D-01
      2.797000D+00          -1.272620D-01
      5.215000D-01           5.445290D-01
      1.596000D-01           5.804960D-01
S   1   1.00
      1.596000D-01           1.000000D+00
S   1   1.00
      0.0469000              1.0000000
P   4   1.00
      9.439000D+00           3.810900D-02
      2.002000D+00           2.094800D-01
      5.456000D-01           5.085570D-01
      1.517000D-01           4.688420D-01
P   1   1.00
      1.517000D-01           1.000000D+00
P   1   1.00
      0.0404100              1.0000000
P    1  1.00
     0.0269400   1.0
P    1  1.00
     0.0179600   1.0
P    1  1.00
     0.0119733   1.0
P    1  1.00
     0.0079822   1.0
D   1   1.00
      5.500000D-01           1.0000000
D   1   1.00
      0.1510000              1.0000000
D    1  1.00
     0.0755000   1.0
****
C     2
S   9   1.00
      6.665000D+03           6.920000D-04
      1.000000D+03           5.329000D-03
      2.280000D+02           2.707700D-02
      6.471000D+01           1.017180D-01
      2.106000D+01           2.747400D-01
      7.495000D+00           4.485640D-01
      2.797000D+00           2.850740D-01
      5.215000D-01           1.520400D-02
      1.596000D-01          -3.191000D-03
S   9   1.00
      6.665000D+03          -1.460000D-04
      1.000000D+03          -1.154000D-03
      2.280000D+02          -5.725000D-03
      6.471000D+01          -2.331200D-02
      2.106000D+01          -6.395500D-02
      7.495000D+00          -1.499810D-01
      2.797000D+00          -1.272620D-01
      5.215000D-01           5.445290D-01
      1.596000D-01           5.804960D-01
S   1   1.00
      1.596000D-01           1.000000D+00
S   1   1.00
      0.0469000              1.0000000
P   4   1.00
      9.439000D+00           3.810900D-02
      2.002000D+00           2.094800D-01
      5.456000D-01           5.085570D-01
      1.517000D-01           4.688420D-01
P   1   1.00
      1.517000D-01           1.000000D+00
P   1   1.00
      0.0404100              1.0000000
P    1  1.00
     0.0269400   1.0
P    1  1.00
     0.0179600   1.0
P    1  1.00
     0.0119733   1.0
P    1  1.00
     0.0079822   1.0
D   1   1.00
      5.500000D-01           1.0000000
D   1   1.00
      0.1510000              1.0000000
D    1  1.00
     0.0755000   1.0
****
H     3
S   4   1.00
      1.301000D+01           1.968500D-02
      1.962000D+00           1.379770D-01
      4.446000D-01           4.781480D-01
      1.220000D-01           5.012400D-01
S   1   1.00
      1.220000D-01           1.000000D+00
P   1   1.00
      7.270000D-01           1.0000000
****
H     4
S   4   1.00
      1.301000D+01           1.968500D-02
      1.962000D+00           1.379770D-01
      4.446000D-01           4.781480D-01
      1.220000D-01           5.012400D-01
S   1   1.00
      1.220000D-01           1.000000D+00
P   1   1.00
      7.270000D-01           1.0000000
****
H     5
S   4   1.00
      1.301000D+01           1.968500D-02
      1.962000D+00           1.379770D-01
      4.446000D-01           4.781480D-01
      1.220000D-01           5.012400D-01
S   1   1.00
      1.220000D-01           1.000000D+00
P   1   1.00
      7.270000D-01           1.0000000
****
H     6
S   4   1.00
      1.301000D+01           1.968500D-02
      1.962000D+00           1.379770D-01
      4.446000D-01           4.781480D-01
      1.220000D-01           5.012400D-01
S   1   1.00
      1.220000D-01           1.000000D+00
P   1   1.00
      7.270000D-01           1.0000000
****
H     7
S    4   1.00
      1.301000D+01           1.968500D-02
      1.962000D+00           1.379770D-01
      4.446000D-01           4.781480D-01
      1.220000D-01           5.012400D-01
S    1   1.00
      1.220000D-01           1.000000D+00
S    1   1.00
      0.0297400              1.0000000
P    1   1.00
      7.270000D-01           1.0000000
P    1   1.00
      0.1410000              1.0000000
****
$end
--------------------------------------------------------------

             Standard Nuclear Orientation (Angstroms)
    I     Atom           X                Y                Z
 ----------------------------------------------------------------
    1      C      -0.6645000000    -0.0000000000    -0.6004827636
    2      C       0.6645000000     0.0000000000    -0.6004827636
    3      H      -1.1590800000    -0.0000000000     0.3618662364
    4      H       1.1590800000     0.0000000000     0.3618662364
    5      H      -1.1590800000    -0.0000000000    -1.5628307636
    6      H       1.1590800000     0.0000000000    -1.5628307636
    7      H       0.0000000000     0.0000000000     9.6077222168
 ----------------------------------------------------------------

   12     -78.4995456214      3.08E-09 Convergence criterion met
 Total energy in the final basis set = -78.49954562
  Term symbol:  1 (1) A2                                    R^2 =  5.87282e-08
  Excitation energy:                                              -0.510376 eV
  Term symbol:  2 (1) A2                                    R^2 =  2.78544e-07
  Excitation energy:                                               0.303330 eV
  Term symbol:  3 (1) A2                                    R^2 =  1.40065e-06
  Excitation energy:                                               1.323026 eV
  Term symbol:  4 (1) A2                                    R^2 =  2.29482e-06
  Excitation energy:                                               2.294781 eV
  Term symbol:  5 (1) A2                                    R^2 =  3.17318e-08
  Excitation energy:                                               4.055096 eV
  Term symbol:  6 (1) A2                                    R^2 =  3.67440e-06
  Excitation energy:                                               4.359172 eV
  Term symbol:  7 (1) A2                                    R^2 =  1.84465e-08
  Excitation energy:                                               4.424369 eV
  Term symbol:  8 (1) A2                                    R^2 =  4.37332e-08
  Excitation energy:                                               4.667919 eV
  Term symbol:  9 (1) A2                                    R^2 =  2.78282e-08
  Excitation energy:                                               4.871776 eV
  Excited state 10 (singlet, A2)                                   [converged]
  Term symbol:  10 (1) A2                                   R^2 =  4.74233e-09
  Excitation energy:                                               4.882536 eV
  Excited state 11 (singlet, A2)                                   [converged]
  Term symbol:  11 (1) A2                                   R^2 =  8.94188e-09
  Excitation energy:                                               5.269643 eV
  Excited state 12 (singlet, A2)                                   [converged]
  Term symbol:  12 (1) A2                                   R^2 =  2.18780e-08
  Excitation energy:                                               5.336177 eV
  Excited state 13 (singlet, A2)                                   [converged]
  Term symbol:  13 (1) A2                                   R^2 =  7.68918e-09
  Excitation energy:                                               5.470461 eV
  Excited state 14 (singlet, A2)                                   [converged]
  Term symbol:  14 (1) A2                                   R^2 =  1.56547e-08
  Excitation energy:                                               5.484535 eV
  Excited state 15 (singlet, A2)                                   [converged]
  Term symbol:  15 (1) A2                                   R^2 =  8.91205e-09
  Excitation energy:                                               5.505882 eV
  Excited state 16 (singlet, A2)                                   [converged]
  Term symbol:  16 (1) A2                                   R^2 =  9.81817e-09
  Excitation energy:                                               5.699223 eV
  Excited state 17 (singlet, A2)                                   [converged]
  Excitation energy:                                               0.868120 eV
  Excitation energy:                                               0.865294 eV
  Excitation energy:                                               0.793199 eV
  Excitation energy:                                               0.723630 eV
  Excitation energy:                                               0.662375 eV
  Excitation energy:                                               0.464898 eV
  Excitation energy:                                               0.447064 eV
  Excitation energy:                                               0.419448 eV
  Excitation energy:                                               0.203706 eV
  Excitation energy:                                               0.180462 eV
  Excitation energy:                                               0.051441 eV
  Excitation energy:                                               7.590273 eV
  Excitation energy:                                               6.776567 eV
  Excitation energy:                                               5.756871 eV
  Excitation energy:                                               4.785116 eV
  Excitation energy:                                               3.024801 eV
  Excitation energy:                                               2.720725 eV
  Excitation energy:                                               2.655528 eV
  Excitation energy:                                               2.411978 eV
  Excitation energy:                                               2.208121 eV
  Excitation energy:                                               2.197361 eV
  Excitation energy:                                               1.810254 eV
  Excitation energy:                                               1.743720 eV
  Excitation energy:                                               1.609436 eV
  Excitation energy:                                               1.595362 eV
  Excitation energy:                                               1.574015 eV
  Excitation energy:                                               1.380674 eV
  Excitation energy:                                               0.947261 eV
  Excitation energy:                                               0.901989 eV
  Excitation energy:                                               0.899162 eV
  Excitation energy:                                               0.827068 eV
  Excitation energy:                                               0.757499 eV
  Excitation energy:                                               0.696244 eV
  Excitation energy:                                               0.498767 eV
  Excitation energy:                                               0.480932 eV
  Excitation energy:                                               0.453317 eV
  Excitation energy:                                               0.237575 eV
  Excitation energy:                                               0.214331 eV
  Excitation energy:                                               0.085310 eV
  Excitation energy:                                               0.033869 eV

             Orbital Energies (a.u.) and Symmetries
 --------------------------------------------------------------

 Alpha MOs, Restricted
 -- Occupied --
-11.184 -11.182  -0.989  -0.729  -0.608  -0.515  -0.462  -0.324
  1 A1    1 B1    2 A1    2 B1    3 A1    4 A1    3 B1    1 B2
 -0.023
  5 A1

 Beta MOs, Restricted
 -- Occupied --
-11.184 -11.182  -0.989  -0.729  -0.608  -0.515  -0.462  -0.324
  1 A1    1 B1    2 A1    2 B1    3 A1    4 A1    3 B1    1 B2
 -0.023
  5 A1

          Ground-State Mulliken Net Atomic Charges

     Atom                 Charge (a.u.)
  ----------------------------------------
      1 C                    -0.208595
      2 C                    -0.208595
      3 H                     0.048523
      4 H                     0.048523
      5 H                     0.032848
      6 H                     0.032848
      7 H                    -0.745552
  ----------------------------------------
  Sum of atomic charges =    -1.000000

                    Cartesian Multipole Moments
 -----------------------------------------------------------------
    Charge (ESU x 10^10)
                -4.8032
    Dipole Moment (Debye)
         X      -0.0000      Y      -0.0000      Z     -38.0450
       Tot      38.0450
    Quadrupole Moments (Debye-Ang)
        XX     -37.9905     XY       0.0000     YY     -37.6968
        XZ       0.0000     YZ       0.0000     ZZ    -426.8381

 Total job time:  319.85s(wall), 1203.63s(cpu)
        *  Thank you very much for using Q-Chem.  Have a nice day.  *
