 Q-Chem 5.4 (devel), Q-Chem, Inc., Pleasanton, CA (2021)
 Q-Chem 5.4.1 for Intel X86 EM64T Linux

User input:
--------------------------------------------------------------
$molecule
-1 1
C        -0.6645000000    0.0000000000   -0.2082049804
C         0.6645000000    0.0000000000   -0.2082049804
H        -1.1590800000    0.0000000000    0.7541440196
H         1.1590800000    0.0000000000    0.7541440196
H        -1.1590800000    0.0000000000   -1.1705529804
H         1.1590800000    0.0000000000   -1.1705529804
O         0.0000000000    0.0000000000    9.792
H         0.0000000000    0.0000000000    10.792
$end

$rem
   JOBTYPE opt
   METHOD MP2
   BASIS gen
   PURECART 11
   THRESH 14
   S2THRESH 14
   THREADS 10
   MEM_TOTAL 95000
$end
$basis
H     0
cc-pvtz
****
C     0
cc-pvtz
****
O     0
cc-pvtz
****
$end

$opt
FIXED
1 xyz
2 xyz
3 xyz
4 xyz
5 xyz
6 xyz
7 xyz
ENDFIXED
$end
--------------------------------------------------------------

   12    -153.4406804981      1.97e-09  Convergence criterion met
 Total energy in the final basis set =     -153.4406804981
        MP2         total energy =                  -154.04262628 au
   10    -153.4418409166      7.29e-09  Convergence criterion met
 Total energy in the final basis set =     -153.4418409166
        MP2         total energy =                  -154.04330062 au

             Standard Nuclear Orientation (Angstroms)
    I     Atom           X                Y                Z
 ----------------------------------------------------------------
    1      C      -0.6645000000     0.0000000000     3.6357614391
    2      C       0.6645000000     0.0000000000     3.6357614391
    3      H      -1.1590800000     0.0000000000     2.6734124391
    4      H       1.1590800000     0.0000000000     2.6734124391
    5      H      -1.1590800000     0.0000000000     4.5981094391
    6      H       1.1590800000     0.0000000000     4.5981094391
    7      O       0.0000000000     0.0000000000    -6.3644435413
    8      H       0.0000000000     0.0000000000    -7.3299440706
 ----------------------------------------------------------------

   10    -153.4427876289      7.09e-09  Convergence criterion met
 Total energy in the final basis set =     -153.4427876289
        MP2         total energy =                  -154.04362002 au
 Final energy is   -154.043620024298
 **  OPTIMIZATION CONVERGED  **

             Orbital Energies (a.u.) and Symmetries
 --------------------------------------------------------------

 Alpha MOs, Restricted
 -- Occupied --
-20.106 -11.172 -11.170  -0.984  -0.847  -0.726  -0.605  -0.512
  1 A1    2 A1    1 B1    3 A1    4 A1    2 B1    5 A1    6 A1
 -0.461  -0.323  -0.198  -0.064  -0.064
  3 B1    1 B2    7 A1    4 B1    2 B2

 Beta MOs, Restricted
 -- Occupied --
-20.106 -11.172 -11.170  -0.984  -0.847  -0.726  -0.605  -0.512
  1 A1    2 A1    1 B1    3 A1    4 A1    2 B1    5 A1    6 A1
 -0.461  -0.323  -0.198  -0.064  -0.064
  3 B1    1 B2    7 A1    4 B1    2 B2

          Ground-State Mulliken Net Atomic Charges

     Atom                 Charge (a.u.)
  ----------------------------------------
      1 C                    -0.305450
      2 C                    -0.305450
      3 H                     0.163657
      4 H                     0.163657
      5 H                     0.141793
      6 H                     0.141793
      7 O                    -1.118731
      8 H                     0.118731
  ----------------------------------------
  Sum of atomic charges =    -1.000000

                    Cartesian Multipole Moments
 -----------------------------------------------------------------
    Charge (ESU x 10^10)
                -4.8032
    Dipole Moment (Debye)
         X      -0.0000      Y       0.0000      Z      29.5675
       Tot      29.5675
    Quadrupole Moments (Debye-Ang)
        XX     -21.5391     XY      -0.0000     YY     -24.1437
        XZ      -0.0000     YZ       0.0000     ZZ    -203.8195

 Total job time:  47.49s(wall), 266.02s(cpu)
        *  Thank you very much for using Q-Chem.  Have a nice day.  *
