 Q-Chem 5.4 (devel), Q-Chem, Inc., Pleasanton, CA (2021)
 Q-Chem 5.4.1 for Intel X86 EM64T Linux

User input:
--------------------------------------------------------------
$comment
	H_Ethylene CAP-ADC(3) 10x
	Basis: C: jun-TZ+4p1d, H: TZ
$end

$molecule
-1 1
C         0.0000000000    0.0000000000    0.8417902907
C         0.0000000000    0.0000000000   -0.4872097093
H         0.9623488518    0.0000000000    1.3363703127
H         0.9623489048    0.0000000000   -0.9817896873
H        -0.9623488518    0.0000000000    1.3363703127
H        -0.9623489048    0.0000000000   -0.9817896873
H         0.0000000000    0.0000000000   -10.4872097093
$end

$rem
	basis gen
	method adc(2)
        EE_STATES [0,0,0,10]
	scf_convergence 8
	thresh 14
	adc_cap 1
	cap_type 2
	cap_x 1500
	cap_x_end 5000
	cap_x_step 500
	xc_grid 000250000974
	adc_print 3
	adc_davidson_conv 5
	adc_nguess_singles 100
	adc_nguess_doubles 50
	adc_davidson_maxsubspace 400
	adc_davidson_maxiter 40
	adc_davidson_thresh 14
	mem_total 95000
	threads 12
$end

$basis
C     1
S    8   1.00
   8236.0000000              0.0005310
   1235.0000000              0.0041080
    280.8000000              0.0210870
     79.2700000              0.0818530
     25.5900000              0.2348170
      8.9970000              0.4344010
      3.3190000              0.3461290
      0.3643000             -0.0089830
S    1   1.00
      0.9059000              1.0000000
S    8   1.00
   8236.0000000             -0.0001130
   1235.0000000             -0.0008780
    280.8000000             -0.0045400
     79.2700000             -0.0181330
     25.5900000             -0.0557600
      8.9970000             -0.1268950
      3.3190000             -0.1703520
      0.3643000              0.5986840
S    1   1.00
      0.1285000              1.0000000
S    1   1.00
      0.0440200              1.0000000
P    3   1.00
     18.7100000              0.0140310
      4.1330000              0.0868660
      1.2000000              0.2902160
P    1   1.00
      0.3827000              1.0000000
P    1   1.00
      0.1209000              1.0000000
P    1   1.00
      0.0356900              1.0000000
P    1   1.0
      0.0237933 1.0
P    1   1.0
      0.0158622 1.0
P    1   1.0
      0.0105748 1.0
P    1   1.0
      0.0070498 1.0
D    1   1.00
      1.0970000              1.0000000
D    1   1.00
      0.3180000              1.0000000
D    1   1.00
      0.1000000              1.0000000
D    1   1.00
      0.0500000 1.0
F    1   1.00
      0.7610000              1.0000000
****
C     2
S    8   1.00
   8236.0000000              0.0005310
   1235.0000000              0.0041080
    280.8000000              0.0210870
     79.2700000              0.0818530
     25.5900000              0.2348170
      8.9970000              0.4344010
      3.3190000              0.3461290
      0.3643000             -0.0089830
S    1   1.00
      0.9059000              1.0000000
S    8   1.00
   8236.0000000             -0.0001130
   1235.0000000             -0.0008780
    280.8000000             -0.0045400
     79.2700000             -0.0181330
     25.5900000             -0.0557600
      8.9970000             -0.1268950
      3.3190000             -0.1703520
      0.3643000              0.5986840
S    1   1.00
      0.1285000              1.0000000
S    1   1.00
      0.0440200              1.0000000
P    3   1.00
     18.7100000              0.0140310
      4.1330000              0.0868660
      1.2000000              0.2902160
P    1   1.00
      0.3827000              1.0000000
P    1   1.00
      0.1209000              1.0000000
P    1   1.00
      0.0356900              1.0000000
P    1   1.0
      0.0237933 1.0
P    1   1.0
      0.0158622 1.0
P    1   1.0
      0.0105748 1.0
P    1   1.0
      0.0070498 1.0
D    1   1.00
      1.0970000              1.0000000
D    1   1.00
      0.3180000              1.0000000
D    1   1.00
      0.1000000              1.0000000
D    1   1.00
      0.0500000 1.0
F    1   1.00
      0.7610000              1.0000000
****
H     3
cc-pVTZ
****
H     4
cc-pVTZ
****
H     5
cc-pVTZ
****
H     6
cc-pVTZ
****
H     7
aug-cc-pVTZ
****
$end
--------------------------------------------------------------

             Standard Nuclear Orientation (Angstroms)
    I     Atom           X                Y                Z
 ----------------------------------------------------------------
    1      C       0.0000000000     0.0000000000     1.2918235242
    2      C       0.0000000000     0.0000000000    -0.0371764758
    3      H       0.9623488518     0.0000000000     1.7864035462
    4      H       0.9623489048     0.0000000000    -0.5317564538
    5      H      -0.9623488518     0.0000000000     1.7864035462
    6      H      -0.9623489048     0.0000000000    -0.5317564538
    7      H       0.0000000000     0.0000000000   -10.0371764758
 ----------------------------------------------------------------

   12     -78.5348628343      1.53E-09 Convergence criterion met
 Total energy in the final basis set = -78.53486283
  Excited state 1 (singlet, B2)                                    [converged]
  Term symbol:  1 (1) B2                                    R^2 =  1.46746e-08
  Excitation energy:                                               0.114280 eV
  Excited state 2 (singlet, B2)                                    [converged]
  Term symbol:  2 (1) B2                                    R^2 =  1.07122e-08
  Excitation energy:                                               0.339793 eV
  Excited state 3 (singlet, B2)                                    [converged]
  Term symbol:  3 (1) B2                                    R^2 =  3.60606e-08
  Excitation energy:                                               0.769294 eV
  Excited state 4 (singlet, B2)                                    [converged]
  Term symbol:  4 (1) B2                                    R^2 =  4.66015e-08
  Excitation energy:                                               1.046063 eV
  Excited state 5 (singlet, B2)                                    [converged]
  Term symbol:  5 (1) B2                                    R^2 =  2.17943e-07
  Excitation energy:                                               1.871623 eV
  Excited state 6 (singlet, B2)                                    [converged]
  Term symbol:  6 (1) B2                                    R^2 =  2.08052e-07
  Excitation energy:                                               1.971695 eV
  Excited state 7 (singlet, B2)                                    [converged]
  Term symbol:  7 (1) B2                                    R^2 =  5.46854e-07
  Excitation energy:                                               2.735206 eV
  Excited state 8 (singlet, B2)                                    [converged]
  Term symbol:  8 (1) B2                                    R^2 =  7.53764e-07
  Excitation energy:                                               3.901840 eV
  Excited state 9 (singlet, B2)                                    [converged]
  Term symbol:  9 (1) B2                                    R^2 =  2.57341e-08
  Excitation energy:                                               4.277044 eV
  Excited state 10 (singlet, B2)                                    [converged]
  Term symbol:  10 (1) B2                                   R^2 =  3.49431e-06
  Excitation energy:                                               4.548012 eV
  Excitation energy:                                               0.225513 eV
  Excitation energy:                                               0.655013 eV
  Excitation energy:                                               0.429500 eV
  Excitation energy:                                               0.931783 eV
  Excitation energy:                                               0.706270 eV
  Excitation energy:                                               0.276770 eV
  Excitation energy:                                               1.757342 eV
  Excitation energy:                                               1.531829 eV
  Excitation energy:                                               1.102329 eV
  Excitation energy:                                               0.825559 eV
  Excitation energy:                                               1.857415 eV
  Excitation energy:                                               1.631902 eV
  Excitation energy:                                               1.202402 eV
  Excitation energy:                                               0.925632 eV
  Excitation energy:                                               0.100073 eV
  Excitation energy:                                               2.620925 eV
  Excitation energy:                                               2.395412 eV
  Excitation energy:                                               1.965912 eV
  Excitation energy:                                               1.689142 eV
  Excitation energy:                                               0.863583 eV
  Excitation energy:                                               0.763510 eV
  Excitation energy:                                               3.787559 eV
  Excitation energy:                                               3.562046 eV
  Excitation energy:                                               3.132546 eV
  Excitation energy:                                               2.855776 eV
  Excitation energy:                                               2.030217 eV
  Excitation energy:                                               1.930144 eV
  Excitation energy:                                               1.166634 eV
  Excitation energy:                                               4.162764 eV
  Excitation energy:                                               3.937251 eV
  Excitation energy:                                               3.507750 eV
  Excitation energy:                                               3.230981 eV
  Excitation energy:                                               2.405421 eV
  Excitation energy:                                               2.305349 eV
  Excitation energy:                                               1.541838 eV
  Excitation energy:                                               0.375204 eV
  Excitation energy:                                               4.433731 eV
  Excitation energy:                                               4.208218 eV
  Excitation energy:                                               3.778718 eV
  Excitation energy:                                               3.501948 eV
  Excitation energy:                                               2.676389 eV
  Excitation energy:                                               2.576316 eV
  Excitation energy:                                               1.812806 eV
  Excitation energy:                                               0.646172 eV
  Excitation energy:                                               0.270968 eV

             Orbital Energies (a.u.) and Symmetries
 --------------------------------------------------------------

 Alpha MOs, Restricted
 -- Occupied --
-11.177 -11.175  -0.989  -0.730  -0.610  -0.517  -0.465  -0.327
  1 A1    2 A1    3 A1    4 A1    1 B1    5 A1    2 B1    1 B2
 -0.031
  6 A1

 Beta MOs, Restricted
 -- Occupied --
-11.177 -11.175  -0.989  -0.730  -0.610  -0.517  -0.465  -0.327
  1 A1    2 A1    3 A1    4 A1    1 B1    5 A1    2 B1    1 B2
 -0.031
  6 A1

          Ground-State Mulliken Net Atomic Charges

     Atom                 Charge (a.u.)
  ----------------------------------------
      1 C                    -0.122063
      2 C                    -0.781527
      3 H                     0.169417
      4 H                     0.180730
      5 H                     0.169417
      6 H                     0.180730
      7 H                    -0.796704
  ----------------------------------------
  Sum of atomic charges =    -1.000000

                    Cartesian Multipole Moments
 -----------------------------------------------------------------
    Charge (ESU x 10^10)
                -4.8032
    Dipole Moment (Debye)
         X      -0.0000      Y      -0.0000      Z      44.9532
       Tot      44.9532
    Quadrupole Moments (Debye-Ang)
        XX     -28.5959     XY      -0.0000     YY     -32.7946
        XZ      -0.0000     YZ      -0.0000     ZZ    -475.1639

 Total job time:  280.52s(wall), 1286.13s(cpu)
        *  Thank you very much for using Q-Chem.  Have a nice day.  *
