 Q-Chem 5.4 (devel), Q-Chem, Inc., Pleasanton, CA (2021)
 Q-Chem 5.4.1 for Intel X86 EM64T Linux

User input:
--------------------------------------------------------------
$molecule
-1 1
C         0.0000003663    0.4438502432    0.6645000000
C         0.0000003663    0.4438502432   -0.6645000000
H        -0.9623486337    0.4438522630    1.1590800000
H        -0.9623486337    0.4438522630   -1.1590800000
H         0.9623483663    0.4438482235    1.1590800000
H         0.9623483663    0.4438482235   -1.1590800000
H        -0.0000038605   -3.8477690721    0.0000000000
$end

$rem
   METHOD adc(2)
   BASIS gen
   PURECART 11
   EE_STATES [0,0,0,10]
   scf_convergence 8
   ADC_DAVIDSON_MAXITER 120
   ADC_DAVIDSON_MAXSUBSPACE 200
   adc_nguess_singles 100
   THRESH 14
   S2THRESH 14
   adc_davidson_conv 5
   adc_davidson_thresh 14
   THREADS 10
   MEM_TOTAL 95000
   STATE_ANALYSIS TRUE
$end
$basis
C 1
S   9   1.00
      6.665000D+03           6.920000D-04
      1.000000D+03           5.329000D-03
      2.280000D+02           2.707700D-02
      6.471000D+01           1.017180D-01
      2.106000D+01           2.747400D-01
      7.495000D+00           4.485640D-01
      2.797000D+00           2.850740D-01
      5.215000D-01           1.520400D-02
      1.596000D-01          -3.191000D-03
S   9   1.00
      6.665000D+03          -1.460000D-04
      1.000000D+03          -1.154000D-03
      2.280000D+02          -5.725000D-03
      6.471000D+01          -2.331200D-02
      2.106000D+01          -6.395500D-02
      7.495000D+00          -1.499810D-01
      2.797000D+00          -1.272620D-01
      5.215000D-01           5.445290D-01
      1.596000D-01           5.804960D-01
S   1   1.00
      1.596000D-01           1.000000D+00
S   1   1.00
      0.0469000              1.0000000
P   4   1.00
      9.439000D+00           3.810900D-02
      2.002000D+00           2.094800D-01
      5.456000D-01           5.085570D-01
      1.517000D-01           4.688420D-01
P   1   1.00
      1.517000D-01           1.000000D+00
P   1   1.00
      0.0438244      1.0000000
P   1   1.00
      0.0219122      1.0000000
D   1   1.00
      5.500000D-01           1.0000000
****
C 2
S   9   1.00
      6.665000D+03           6.920000D-04
      1.000000D+03           5.329000D-03
      2.280000D+02           2.707700D-02
      6.471000D+01           1.017180D-01
      2.106000D+01           2.747400D-01
      7.495000D+00           4.485640D-01
      2.797000D+00           2.850740D-01
      5.215000D-01           1.520400D-02
      1.596000D-01          -3.191000D-03
S   9   1.00
      6.665000D+03          -1.460000D-04
      1.000000D+03          -1.154000D-03
      2.280000D+02          -5.725000D-03
      6.471000D+01          -2.331200D-02
      2.106000D+01          -6.395500D-02
      7.495000D+00          -1.499810D-01
      2.797000D+00          -1.272620D-01
      5.215000D-01           5.445290D-01
      1.596000D-01           5.804960D-01
S   1   1.00
      1.596000D-01           1.000000D+00
S   1   1.00
      0.0469000              1.0000000
P   4   1.00
      9.439000D+00           3.810900D-02
      2.002000D+00           2.094800D-01
      5.456000D-01           5.085570D-01
      1.517000D-01           4.688420D-01
P   1   1.00
      1.517000D-01           1.000000D+00
P   1   1.00
      0.0438244      1.0000000
P   1   1.00
      0.0219122      1.0000000
D   1   1.00
      5.500000D-01           1.0000000
****
H 3
cc-pVDZ
****
H 4
cc-pVDZ
****
H 5
cc-pVDZ
****
H 6
cc-pVDZ
****
H 7
aug-cc-pVDZ
****
$end
--------------------------------------------------------------

             Standard Nuclear Orientation (Angstroms)
    I     Atom           X                Y                Z
 ----------------------------------------------------------------
    1      C      -0.6645000000     0.0000000000    -0.2524481950
    2      C       0.6645000000    -0.0000002034    -0.2524481950
    3      H      -1.1590800000    -0.9623487966    -0.2524495940
    4      H       1.1590800000    -0.9623487966    -0.2524495940
    5      H      -1.1590800000     0.9623487966    -0.2524495940
    6      H       1.1590800000     0.9623487966    -0.2524495940
    7      H       0.0000000000     0.0000000000     4.0391711203
 ----------------------------------------------------------------

   11     -78.5031343744      6.61E-09 Convergence criterion met
 Total energy in the final basis set = -78.50313437
  Excited state 1 (singlet, B2)                                    [converged]
  Term symbol:  1 (1) B2                                    R^2 =  3.94874e-09
  Excitation energy:                                               1.030832 eV
  Excited state 2 (singlet, B2)                                    [converged]
  Term symbol:  2 (1) B2                                    R^2 =  9.47946e-10
  Excitation energy:                                               4.553747 eV
  Excited state 3 (singlet, B2)                                    [converged]
  Term symbol:  3 (1) B2                                    R^2 =  5.26066e-09
  Excitation energy:                                               7.122103 eV
  Excited state 4 (singlet, B2)                                    [converged]
  Term symbol:  4 (1) B2                                    R^2 =  3.54728e-09
  Excitation energy:                                               8.381370 eV
  Excited state 5 (singlet, B2)                                    [converged]
  Term symbol:  5 (1) B2                                    R^2 =  5.91558e-07
  Excitation energy:                                               8.521980 eV
  Excited state 6 (singlet, B2)                                    [converged]
  Term symbol:  6 (1) B2                                    R^2 =  1.82127e-08
  Excitation energy:                                               9.046833 eV
  Excited state 7 (singlet, B2)                                    [converged]
  Term symbol:  7 (1) B2                                    R^2 =  8.57420e-10
  Excitation energy:                                               9.088661 eV
  Excited state 8 (singlet, B2)                                    [converged]
  Term symbol:  8 (1) B2                                    R^2 =  5.86841e-08
  Excitation energy:                                               9.709950 eV
  Excited state 9 (singlet, B2)                                    [converged]
  Term symbol:  9 (1) B2                                    R^2 =  8.38433e-09
  Excitation energy:                                               9.769833 eV
  Excited state 10 (singlet, B2)                                    [converged]
  Term symbol:  10 (1) B2                                   R^2 =  3.47007e-09
  Excitation energy:                                               9.831298 eV

             Orbital Energies (a.u.) and Symmetries
 --------------------------------------------------------------

 Alpha MOs, Restricted
 -- Occupied --
-11.115 -11.113  -0.919  -0.661  -0.539  -0.446  -0.395  -0.252
  1 A1    1 B1    2 A1    2 B1    1 B2    3 A1    1 A2    4 A1
 -0.022
  5 A1

 Beta MOs, Restricted
 -- Occupied --
-11.115 -11.113  -0.919  -0.661  -0.539  -0.446  -0.395  -0.252
  1 A1    1 B1    2 A1    2 B1    1 B2    3 A1    1 A2    4 A1
 -0.022
  5 A1

          Ground-State Mulliken Net Atomic Charges

     Atom                 Charge (a.u.)
  ----------------------------------------
      1 C                    -0.304427
      2 C                    -0.304427
      3 H                     0.061523
      4 H                     0.061530
      5 H                     0.061526
      6 H                     0.061519
      7 H                    -0.637244
  ----------------------------------------
  Sum of atomic charges =    -1.000000

                    Cartesian Multipole Moments
 -----------------------------------------------------------------
    Charge (ESU x 10^10)
                -4.8032
    Dipole Moment (Debye)
         X      -0.0000      Y       0.0000      Z     -15.6659
       Tot      15.6659
    Quadrupole Moments (Debye-Ang)
        XX     -21.1847     XY       0.0000     YY     -19.8742
        XZ       0.0000     YZ      -0.0000     ZZ     -91.3589

 Total job time:  164.49s(wall), 396.47s(cpu)
        *  Thank you very much for using Q-Chem.  Have a nice day.  *
