 Q-Chem 5.4 (devel), Q-Chem, Inc., Pleasanton, CA (2021)
 Q-Chem 5.4.1 for Intel X86 EM64T Linux

User input:
--------------------------------------------------------------
$comment
	H_Ethylene CAP-ADC(2) optz
	Basis: C: jun-TZ+4p1d, H: TZ
$end

$molecule
-1 1
C        -0.6645000000    0.0000000000   -0.1764707059
C         0.6645000000    0.0000000000   -0.1764707059
H        -1.1590800000    0.0000000000    0.7858782941
H         1.1590800000    0.0000000000    0.7858782941
H        -1.1590800000    0.0000000000   -1.1388187059
H         1.1590800000    0.0000000000   -1.1388187059
H         0.0000000000    0.0000000000    2.8235292941
$end

$rem
	basis gen
	method adc(3)
        EE_STATES [0,10,0,0]
	scf_convergence 8
	thresh 14
	adc_cap 1
	cap_type 2
	cap_x 1500
	cap_x_end 5000
	cap_x_step 500
	xc_grid 000250000974
	adc_print 3
	adc_davidson_conv 5
	adc_nguess_singles 100
	adc_nguess_doubles 50
	adc_davidson_maxsubspace 400
	adc_davidson_maxiter 40
	adc_davidson_thresh 14
	mem_total 95000
	threads 12
$end

$basis
C     1
S    8   1.00
   8236.0000000              0.0005310
   1235.0000000              0.0041080
    280.8000000              0.0210870
     79.2700000              0.0818530
     25.5900000              0.2348170
      8.9970000              0.4344010
      3.3190000              0.3461290
      0.3643000             -0.0089830
S    1   1.00
      0.9059000              1.0000000
S    8   1.00
   8236.0000000             -0.0001130
   1235.0000000             -0.0008780
    280.8000000             -0.0045400
     79.2700000             -0.0181330
     25.5900000             -0.0557600
      8.9970000             -0.1268950
      3.3190000             -0.1703520
      0.3643000              0.5986840
S    1   1.00
      0.1285000              1.0000000
S    1   1.00
      0.0440200              1.0000000
P    3   1.00
     18.7100000              0.0140310
      4.1330000              0.0868660
      1.2000000              0.2902160
P    1   1.00
      0.3827000              1.0000000
P    1   1.00
      0.1209000              1.0000000
P    1   1.00
      0.0356900              1.0000000
P    1   1.0
      0.0237933 1.0
P    1   1.0
      0.0158622 1.0
P    1   1.0
      0.0105748 1.0
P    1   1.0
      0.0070498 1.0
D    1   1.00
      1.0970000              1.0000000
D    1   1.00
      0.3180000              1.0000000
D    1   1.00
      0.1000000              1.0000000
D    1   1.00
      0.0500000 1.0
F    1   1.00
      0.7610000              1.0000000
****
C     2
S    8   1.00
   8236.0000000              0.0005310
   1235.0000000              0.0041080
    280.8000000              0.0210870
     79.2700000              0.0818530
     25.5900000              0.2348170
      8.9970000              0.4344010
      3.3190000              0.3461290
      0.3643000             -0.0089830
S    1   1.00
      0.9059000              1.0000000
S    8   1.00
   8236.0000000             -0.0001130
   1235.0000000             -0.0008780
    280.8000000             -0.0045400
     79.2700000             -0.0181330
     25.5900000             -0.0557600
      8.9970000             -0.1268950
      3.3190000             -0.1703520
      0.3643000              0.5986840
S    1   1.00
      0.1285000              1.0000000
S    1   1.00
      0.0440200              1.0000000
P    3   1.00
     18.7100000              0.0140310
      4.1330000              0.0868660
      1.2000000              0.2902160
P    1   1.00
      0.3827000              1.0000000
P    1   1.00
      0.1209000              1.0000000
P    1   1.00
      0.0356900              1.0000000
P    1   1.0
      0.0237933 1.0
P    1   1.0
      0.0158622 1.0
P    1   1.0
      0.0105748 1.0
P    1   1.0
      0.0070498 1.0
D    1   1.00
      1.0970000              1.0000000
D    1   1.00
      0.3180000              1.0000000
D    1   1.00
      0.1000000              1.0000000
D    1   1.00
      0.0500000 1.0
F    1   1.00
      0.7610000              1.0000000
****
H     3
cc-pVTZ
****
H     4
cc-pVTZ
****
H     5
cc-pVTZ
****
H     6
cc-pVTZ
****
H     7
aug-cc-pVTZ
****
$end
--------------------------------------------------------------

             Standard Nuclear Orientation (Angstroms)
    I     Atom           X                Y                Z
 ----------------------------------------------------------------
    1      C      -0.6645000000    -0.0000000000    -0.1764707059
    2      C       0.6645000000     0.0000000000    -0.1764707059
    3      H      -1.1590800000    -0.0000000000     0.7858782941
    4      H       1.1590800000     0.0000000000     0.7858782941
    5      H      -1.1590800000    -0.0000000000    -1.1388187059
    6      H       1.1590800000     0.0000000000    -1.1388187059
    7      H       0.0000000000     0.0000000000     2.8235292941
 ----------------------------------------------------------------

   11     -78.5467008361      6.10E-09 Convergence criterion met
 Total energy in the final basis set = -78.54670084
  Excited state 1 (singlet, A2)                                    [converged]
  Term symbol:  1 (1) A2                                    R^2 =  8.66065e-13
  Excitation energy:                                               1.072259 eV
  Excited state 2 (singlet, A2)                                    [converged]
  Term symbol:  2 (1) A2                                    R^2 =  6.05016e-12
  Excitation energy:                                               1.764916 eV
  Excited state 3 (singlet, A2)                                    [converged]
  Term symbol:  3 (1) A2                                    R^2 =  7.97099e-11
  Excitation energy:                                               2.668351 eV
  Excited state 4 (singlet, A2)                                    [converged]
  Term symbol:  4 (1) A2                                    R^2 =  5.48123e-10
  Excitation energy:                                               3.516394 eV
  Excited state 5 (singlet, A2)                                    [converged]
  Term symbol:  5 (1) A2                                    R^2 =  4.64910e-07
  Excitation energy:                                               5.262905 eV
  Excited state 6 (singlet, A2)                                    [converged]
  Term symbol:  6 (1) A2                                    R^2 =  1.95875e-06
  Excitation energy:                                               5.374872 eV
  Excited state 7 (singlet, A2)                                    [converged]
  Term symbol:  7 (1) A2                                    R^2 =  1.56950e-08
  Excitation energy:                                               5.721009 eV
  Excited state 8 (singlet, A2)                                    [converged]
  Term symbol:  8 (1) A2                                    R^2 =  6.94446e-09
  Excitation energy:                                               5.977202 eV
  Excited state 9 (singlet, A2)                                    [converged]
  Term symbol:  9 (1) A2                                    R^2 =  5.93538e-06
  Excitation energy:                                               6.007075 eV
  Excited state 10 (singlet, A2)                                    [converged]
  Term symbol:  10 (1) A2                                   R^2 =  3.32218e-09
  Excitation energy:                                               6.386163 eV
  Excitation energy:                                               0.692657 eV
  Excitation energy:                                               1.596092 eV
  Excitation energy:                                               0.903435 eV
  Excitation energy:                                               2.444135 eV
  Excitation energy:                                               1.751478 eV
  Excitation energy:                                               0.848043 eV
  Excitation energy:                                               4.190646 eV
  Excitation energy:                                               3.497989 eV
  Excitation energy:                                               2.594554 eV
  Excitation energy:                                               1.746511 eV
  Excitation energy:                                               4.302612 eV
  Excitation energy:                                               3.609955 eV
  Excitation energy:                                               2.706520 eV
  Excitation energy:                                               1.858477 eV
  Excitation energy:                                               0.111966 eV
  Excitation energy:                                               4.648749 eV
  Excitation energy:                                               3.956092 eV
  Excitation energy:                                               3.052658 eV
  Excitation energy:                                               2.204614 eV
  Excitation energy:                                               0.458103 eV
  Excitation energy:                                               0.346137 eV
  Excitation energy:                                               4.904943 eV
  Excitation energy:                                               4.212286 eV
  Excitation energy:                                               3.308851 eV
  Excitation energy:                                               2.460807 eV
  Excitation energy:                                               0.714297 eV
  Excitation energy:                                               0.602330 eV
  Excitation energy:                                               0.256193 eV
  Excitation energy:                                               4.934815 eV
  Excitation energy:                                               4.242158 eV
  Excitation energy:                                               3.338723 eV
  Excitation energy:                                               2.490680 eV
  Excitation energy:                                               0.744169 eV
  Excitation energy:                                               0.632203 eV
  Excitation energy:                                               0.286066 eV
  Excitation energy:                                               0.029873 eV
  Excitation energy:                                               5.313904 eV
  Excitation energy:                                               4.621247 eV
  Excitation energy:                                               3.717812 eV
  Excitation energy:                                               2.869769 eV
  Excitation energy:                                               1.123258 eV
  Excitation energy:                                               1.011291 eV
  Excitation energy:                                               0.665154 eV
  Excitation energy:                                               0.408961 eV
  Excitation energy:                                               0.379088 eV

             Orbital Energies (a.u.) and Symmetries
 --------------------------------------------------------------

 Alpha MOs, Restricted
 -- Occupied --
-11.066 -11.064  -0.878  -0.622  -0.498  -0.409  -0.352  -0.218
  1 A1    1 B1    2 A1    2 B1    3 A1    4 A1    3 B1    1 B2
 -0.048
  5 A1

 Beta MOs, Restricted
 -- Occupied --
-11.066 -11.064  -0.878  -0.622  -0.498  -0.409  -0.352  -0.218
  1 A1    1 B1    2 A1    2 B1    3 A1    4 A1    3 B1    1 B2
 -0.048
  5 A1

          Ground-State Mulliken Net Atomic Charges

     Atom                 Charge (a.u.)
  ----------------------------------------
      1 C                    -0.574974
      2 C                    -0.574974
      3 H                     0.211335
      4 H                     0.211335
      5 H                     0.143848
      6 H                     0.143848
      7 H                    -0.560417
  ----------------------------------------
  Sum of atomic charges =    -1.000000

                    Cartesian Multipole Moments
 -----------------------------------------------------------------
    Charge (ESU x 10^10)
                -4.8032
    Dipole Moment (Debye)
         X      -0.0000      Y      -0.0000      Z     -11.8478
       Tot      11.8478
    Quadrupole Moments (Debye-Ang)
        XX     -23.1333     XY       0.0000     YY     -24.8048
        XZ      -0.0000     YZ       0.0000     ZZ     -56.8445

 Total job time:  737.77s(wall), 4810.04s(cpu)
        *  Thank you very much for using Q-Chem.  Have a nice day.  *
