 Q-Chem 5.4 (devel), Q-Chem, Inc., Pleasanton, CA (2021)
 Q-Chem 5.4.1 for Intel X86 EM64T Linux

User input:
--------------------------------------------------------------
$comment
	Ethylene CAP-EOM-CCSD
	Basis: C/7H: jun-TZ+4p1d, H: TZ
$end

$molecule
-1 1
C       0.6645000000     0.0000000000    -0.1470587929
C      -0.6645000000     0.0000000044    -0.1470587929
H       1.1590799243     0.9623488970    -0.1470589766
H      -1.1590799243     0.9623488970    -0.1470589766
H       1.1590799243    -0.9623488970    -0.1470589766
H      -1.1590799243    -0.9623488970    -0.1470589766
H       0.0000000000     0.0000000000     2.3529412071
$end

$rem
	method eom-ccsd
	basis gen
        EE_STATES [0,0,10,0]
	complex_ccman 1
	xc_grid 000250000974
	scf_convergence 8
	thresh 14
	mem_total 95000
	threads 12
$end

$complex_ccman
	cap_type 2
	proj_cap 3
	cap_eta 300
	cap_x 3500
$end

$basis
C     1
S    8   1.00
   8236.0000000              0.0005310
   1235.0000000              0.0041080
    280.8000000              0.0210870
     79.2700000              0.0818530
     25.5900000              0.2348170
      8.9970000              0.4344010
      3.3190000              0.3461290
      0.3643000             -0.0089830
S    1   1.00
      0.9059000              1.0000000
S    8   1.00
   8236.0000000             -0.0001130
   1235.0000000             -0.0008780
    280.8000000             -0.0045400
     79.2700000             -0.0181330
     25.5900000             -0.0557600
      8.9970000             -0.1268950
      3.3190000             -0.1703520
      0.3643000              0.5986840
S    1   1.00
      0.1285000              1.0000000
S    1   1.00
      0.0440200              1.0000000
P    3   1.00
     18.7100000              0.0140310
      4.1330000              0.0868660
      1.2000000              0.2902160
P    1   1.00
      0.3827000              1.0000000
P    1   1.00
      0.1209000              1.0000000
P    1   1.00
      0.0356900              1.0000000
P    1   1.0
      0.0237933 1.0
P    1   1.0
      0.0158622 1.0
P    1   1.0
      0.0105748 1.0
P    1   1.0
      0.0070498 1.0
D    1   1.00
      1.0970000              1.0000000
D    1   1.00
      0.3180000              1.0000000
D    1   1.00
      0.1000000              1.0000000
D    1   1.00
      0.0500000 1.0
F    1   1.00
      0.7610000              1.0000000
****
C     2
S    8   1.00
   8236.0000000              0.0005310
   1235.0000000              0.0041080
    280.8000000              0.0210870
     79.2700000              0.0818530
     25.5900000              0.2348170
      8.9970000              0.4344010
      3.3190000              0.3461290
      0.3643000             -0.0089830
S    1   1.00
      0.9059000              1.0000000
S    8   1.00
   8236.0000000             -0.0001130
   1235.0000000             -0.0008780
    280.8000000             -0.0045400
     79.2700000             -0.0181330
     25.5900000             -0.0557600
      8.9970000             -0.1268950
      3.3190000             -0.1703520
      0.3643000              0.5986840
S    1   1.00
      0.1285000              1.0000000
S    1   1.00
      0.0440200              1.0000000
P    3   1.00
     18.7100000              0.0140310
      4.1330000              0.0868660
      1.2000000              0.2902160
P    1   1.00
      0.3827000              1.0000000
P    1   1.00
      0.1209000              1.0000000
P    1   1.00
      0.0356900              1.0000000
P    1   1.0
      0.0237933 1.0
P    1   1.0
      0.0158622 1.0
P    1   1.0
      0.0105748 1.0
P    1   1.0
      0.0070498 1.0
D    1   1.00
      1.0970000              1.0000000
D    1   1.00
      0.3180000              1.0000000
D    1   1.00
      0.1000000              1.0000000
D    1   1.00
      0.0500000 1.0
F    1   1.00
      0.7610000              1.0000000
****
H     3
cc-pVTZ
****
H     4
cc-pVTZ
****
H     5
cc-pVTZ
****
H     6
cc-pVTZ
****
H     7
aug-cc-pVTZ
****
$end
--------------------------------------------------------------

             Standard Nuclear Orientation (Angstroms)
    I     Atom           X                Y                Z
 ----------------------------------------------------------------
    1      C       0.6645000000    -0.0000000001    -0.1470587803
    2      C      -0.6645000000     0.0000000009    -0.1470587803
    3      H       1.1590799219     0.9623488981    -0.1470589657
    4      H      -1.1590799219     0.9623488981    -0.1470589657
    5      H       1.1590799219    -0.9623488981    -0.1470589657
    6      H      -1.1590799219    -0.9623489017    -0.1470589623
    7      H      -0.0000000000     0.0000000026     2.3529412197
 ----------------------------------------------------------------

   12     -78.5183854999      4.54e-09  Convergence criterion met
 Total energy in the final basis set =      -78.5183854999
 CCSD total energy          = -78.92468486
 EOMEE transition 1/B1
 Total energy = -78.90660676 a.u.  Excitation energy = 0.4919 eV.
 EOMEE transition 2/B1
 Total energy = -78.90017011 a.u.  Excitation energy = 0.6671 eV.
 EOMEE transition 3/B1
 Total energy = -78.88641755 a.u.  Excitation energy = 1.0413 eV.
 EOMEE transition 4/B1
 Total energy = -78.87469797 a.u.  Excitation energy = 1.3602 eV.
 EOMEE transition 5/B1
 Total energy = -78.85103005 a.u.  Excitation energy = 2.0042 eV.
 EOMEE transition 6/B1
 Total energy = -78.84074677 a.u.  Excitation energy = 2.2841 eV.
 EOMEE transition 7/B1
 Total energy = -78.80937470 a.u.  Excitation energy = 3.1377 eV.
 EOMEE transition 8/B1
 Total energy = -78.79274213 a.u.  Excitation energy = 3.5903 eV.
 EOMEE transition 9/B1
 Total energy = -78.75382416 a.u.  Excitation energy = 4.6494 eV.
 EOMEE transition 10/B1
 Total energy = -78.74492280 a.u.  Excitation energy = 4.8916 eV.
 Excited state properties for  EOMEE-CCSD transition 1/B1
 Excited state properties for  EOMEE-CCSD transition 2/B1
 Excited state properties for  EOMEE-CCSD transition 3/B1
 Excited state properties for  EOMEE-CCSD transition 4/B1
 Excited state properties for  EOMEE-CCSD transition 5/B1
 Excited state properties for  EOMEE-CCSD transition 6/B1
 Excited state properties for  EOMEE-CCSD transition 7/B1
 Excited state properties for  EOMEE-CCSD transition 8/B1
 Excited state properties for  EOMEE-CCSD transition 9/B1
 Excited state properties for  EOMEE-CCSD transition 10/B1

             Orbital Energies (a.u.) and Symmetries
 --------------------------------------------------------------

 Alpha MOs, Restricted
 -- Occupied --
-11.066 -11.065  -0.876  -0.621  -0.500  -0.408  -0.357  -0.219
  1 A1    1 B1    2 A1    2 B1    1 B2    3 A1    1 A2    4 A1
 -0.027
  5 A1

 Beta MOs, Restricted
 -- Occupied --
-11.066 -11.065  -0.876  -0.621  -0.500  -0.408  -0.357  -0.219
  1 A1    1 B1    2 A1    2 B1    1 B2    3 A1    1 A2    4 A1
 -0.027
  5 A1

          Ground-State Mulliken Net Atomic Charges

     Atom                 Charge (a.u.)
  ----------------------------------------
      1 C                    -0.491318
      2 C                    -0.491306
      3 H                     0.112424
      4 H                     0.112422
      5 H                     0.112424
      6 H                     0.112421
      7 H                    -0.467066
  ----------------------------------------
  Sum of atomic charges =    -1.000000

                    Cartesian Multipole Moments
 -----------------------------------------------------------------
    Charge (ESU x 10^10)
                -4.8032
    Dipole Moment (Debye)
         X       0.0000      Y      -0.0000      Z     -10.3893
       Tot      10.3893
    Quadrupole Moments (Debye-Ang)
        XX     -27.0333     XY       0.0000     YY     -23.1535
        XZ      -0.0000     YZ       0.0000     ZZ     -55.9332

 Total job time:  656.20s(wall), 4741.08s(cpu)
        *  Thank you very much for using Q-Chem.  Have a nice day.  *
