 Q-Chem 5.4 (devel), Q-Chem, Inc., Pleasanton, CA (2021)
 Q-Chem 5.4.1 for Intel X86 EM64T Linux

User input:
--------------------------------------------------------------
$molecule
0 2
O         0.0000000000    0.0000000000    3.792
H         0.0000000000    0.0000000000    4.792
$end

$rem
   JOBTYPE opt
   METHOD MP2
   BASIS gen
   PURECART 11
   THRESH 14
   S2THRESH 14
   THREADS 4
   MEM_TOTAL 95000
$end
$basis
H     0
cc-pvtz
****
O     0
aug-cc-pvtz
****
$end
--------------------------------------------------------------

   13     -75.4197204510      6.09e-09  Convergence criterion met
 Total energy in the final basis set =      -75.4197204510
        MP2         total energy =                   -75.62509124 au
   11     -75.4215564080      6.07e-09  Convergence criterion met
 Total energy in the final basis set =      -75.4215564080
        MP2         total energy =                   -75.62588688 au

             Standard Nuclear Orientation (Angstroms)
    I     Atom           X                Y                Z
 ----------------------------------------------------------------
    1      O       0.0000000000     0.0000000000    -0.0958987613
    2      H       0.0000000000     0.0000000000     0.8736765390
 ----------------------------------------------------------------

   11     -75.4215837364      4.37e-09  Convergence criterion met
 Total energy in the final basis set =      -75.4215837364
        MP2         total energy =                   -75.62588732 au
 Final energy is   -75.6258873242256
 **  OPTIMIZATION CONVERGED  **

                    Orbital Energies (a.u.)
 --------------------------------------------------------------

 Alpha MOs
 -- Occupied --
-20.6410  -1.3901  -0.6830  -0.6586  -0.5617

 Beta MOs
 -- Occupied --
-20.6013  -1.2319  -0.6391  -0.5137

          Ground-State Mulliken Net Atomic Charges

     Atom                 Charge (a.u.)    Spin (a.u.)
  --------------------------------------------------------
      1 O                    -0.245574       1.022049
      2 H                     0.245574      -0.022049
  --------------------------------------------------------
  Sum of atomic charges =    -0.000000

                    Cartesian Multipole Moments
 -----------------------------------------------------------------
    Charge (ESU x 10^10)
                 0.0000
    Dipole Moment (Debye)
         X      -0.0000      Y      -0.0000      Z       1.6818
       Tot       1.6818
    Quadrupole Moments (Debye-Ang)
        XX      -5.5743     XY       0.0000     YY      -6.9264
        XZ       0.0000     YZ      -0.0000     ZZ      -4.6350

 Total job time:  14.11s(wall), 44.46s(cpu)
        *  Thank you very much for using Q-Chem.  Have a nice day.  *
