 Q-Chem 5.4 (devel), Q-Chem, Inc., Pleasanton, CA (2021)
 Q-Chem 5.4.1 for Intel X86 EM64T Linux

User input:
--------------------------------------------------------------
$molecule
-1 1
C        -0.6645000000    0.0000000000   -0.2082049804
C         0.6645000000    0.0000000000   -0.2082049804
H        -1.1590800000    0.0000000000    0.7541440196
H         1.1590800000    0.0000000000    0.7541440196
H        -1.1590800000    0.0000000000   -1.1705529804
H         1.1590800000    0.0000000000   -1.1705529804
O         0.0000000000    0.0000000000    3.792
H         0.0000000000    0.0000000000    4.792
$end

$rem
   JOBTYPE opt
   METHOD MP2
   BASIS gen
   PURECART 11
   THRESH 14
   S2THRESH 14
   THREADS 10
   MEM_TOTAL 95000
$end
$basis
H     0
cc-pvtz
****
C     0
cc-pvtz
****
O     0
cc-pvtz
****
$end

$opt
FIXED
1 xyz
2 xyz
3 xyz
4 xyz
5 xyz
6 xyz
7 xy
ENDFIXED
$end
--------------------------------------------------------------

   12    -153.4512390698      3.53e-09  Convergence criterion met
 Total energy in the final basis set =     -153.4512390698
        MP2         total energy =                  -154.05523708 au
   10    -153.4531296207      8.55e-09  Convergence criterion met
 Total energy in the final basis set =     -153.4531296207
        MP2         total energy =                  -154.05615361 au
   10    -153.4533130335      7.68e-09  Convergence criterion met
 Total energy in the final basis set =     -153.4533130335
        MP2         total energy =                  -154.05618784 au
   10    -153.4533801827      7.47e-09  Convergence criterion met
 Total energy in the final basis set =     -153.4533801827
        MP2         total energy =                  -154.05621637 au
   10    -153.4537939611      7.56e-09  Convergence criterion met
 Total energy in the final basis set =     -153.4537939611
        MP2         total energy =                  -154.05641664 au
 Total energy in the final basis set =     -153.4607348241
        MP2         total energy =                  -154.06710379 au
   10    -153.4620755388      8.58e-09  Convergence criterion met
 Total energy in the final basis set =     -153.4620755388
        MP2         total energy =                  -154.07060220 au
   11    -153.4629209368      2.17e-09  Convergence criterion met
 Total energy in the final basis set =     -153.4629209368
        MP2         total energy =                  -154.07348124 au
   10    -153.4625825857      9.92e-09  Convergence criterion met
 Total energy in the final basis set =     -153.4625825857
        MP2         total energy =                  -154.07359041 au

             Standard Nuclear Orientation (Angstroms)
    I     Atom           X                Y                Z
 ----------------------------------------------------------------
    1      C      -0.6645000000     0.0000000000     1.1619088658
    2      C       0.6645000000     0.0000000000     1.1619088658
    3      H      -1.1590800000     0.0000000000     0.1995598658
    4      H       1.1590800000     0.0000000000     0.1995598658
    5      H      -1.1590800000     0.0000000000     2.1242568658
    6      H       1.1590800000     0.0000000000     2.1242568658
    7      O       0.0000000000     0.0000000000    -1.5841414040
    8      H       0.0000000000     0.0000000000    -2.5471307683
 ----------------------------------------------------------------

   11    -153.4625236803      1.96e-09  Convergence criterion met
 Total energy in the final basis set =     -153.4625236803
        MP2         total energy =                  -154.07359352 au
 Final energy is   -154.073593522973
 **  OPTIMIZATION CONVERGED  **

             Orbital Energies (a.u.) and Symmetries
 --------------------------------------------------------------

 Alpha MOs, Restricted
 -- Occupied --
-20.154 -11.031 -11.029  -0.896  -0.843  -0.590  -0.464  -0.376
  1 A1    2 A1    1 B1    3 A1    4 A1    2 B1    5 A1    6 A1
 -0.320  -0.239  -0.188  -0.108  -0.103
  3 B1    7 A1    1 B2    2 B2    4 B1

 Beta MOs, Restricted
 -- Occupied --
-20.154 -11.031 -11.029  -0.896  -0.843  -0.590  -0.464  -0.376
  1 A1    2 A1    1 B1    3 A1    4 A1    2 B1    5 A1    6 A1
 -0.320  -0.239  -0.188  -0.108  -0.103
  3 B1    7 A1    1 B2    2 B2    4 B1

          Ground-State Mulliken Net Atomic Charges

     Atom                 Charge (a.u.)
  ----------------------------------------
      1 C                    -0.297394
      2 C                    -0.297394
      3 H                     0.118835
      4 H                     0.118835
      5 H                     0.073702
      6 H                     0.073702
      7 O                    -0.860184
      8 H                     0.069896
  ----------------------------------------
  Sum of atomic charges =    -1.000000

                    Cartesian Multipole Moments
 -----------------------------------------------------------------
    Charge (ESU x 10^10)
                -4.8032
    Dipole Moment (Debye)
         X      -0.0000      Y      -0.0000      Z       4.1615
       Tot       4.1615
    Quadrupole Moments (Debye-Ang)
        XX     -23.3355     XY      -0.0000     YY     -24.5811
        XZ       0.0000     YZ       0.0000     ZZ     -30.9255

 Total job time:  507.36s(wall), 2694.44s(cpu)
        *  Thank you very much for using Q-Chem.  Have a nice day.  *
