 Q-Chem 5.4 (devel), Q-Chem, Inc., Pleasanton, CA (2021)
 Q-Chem 5.4.1 for Intel X86 EM64T Linux

User input:
--------------------------------------------------------------
$molecule
-1 1
O         0.0000000000    0.0000000000    3.792
H         0.0000000000    0.0000000000    4.792
$end

$rem
   JOBTYPE opt
   METHOD MP2
   BASIS gen
   PURECART 11
   THRESH 14
   S2THRESH 14
   THREADS 4
   MEM_TOTAL 95000
$end
$basis
H     0
cc-pvtz
****
O     0
aug-cc-pvtz
****
$end
--------------------------------------------------------------

   11     -75.4093890165      6.27e-09  Convergence criterion met
 Total energy in the final basis set =      -75.4093890165
        MP2         total energy =                   -75.70023761 au
   10     -75.4117471554      5.29e-09  Convergence criterion met
 Total energy in the final basis set =      -75.4117471554
        MP2         total energy =                   -75.70117528 au

             Standard Nuclear Orientation (Angstroms)
    I     Atom           X                Y                Z
 ----------------------------------------------------------------
    1      O       0.0000000000     0.0000000000    -0.0945484167
    2      H       0.0000000000     0.0000000000     0.8723261945
 ----------------------------------------------------------------

    9     -75.4117953543      9.82e-09  Convergence criterion met
 Total energy in the final basis set =      -75.4117953543
        MP2         total energy =                   -75.70117606 au
 Final energy is   -75.7011760590663
 **  OPTIMIZATION CONVERGED  **

                    Orbital Energies (a.u.)
 --------------------------------------------------------------

 Alpha MOs
 -- Occupied --
-20.1871  -0.9020  -0.2510  -0.1088  -0.1088

          Ground-State Mulliken Net Atomic Charges

     Atom                 Charge (a.u.)
  ----------------------------------------
      1 O                    -1.151530
      2 H                     0.151530
  ----------------------------------------
  Sum of atomic charges =    -1.000000

                    Cartesian Multipole Moments
 -----------------------------------------------------------------
    Charge (ESU x 10^10)
                -4.8032
    Dipole Moment (Debye)
         X       0.0000      Y      -0.0000      Z       1.4761
       Tot       1.4761
    Quadrupole Moments (Debye-Ang)
        XX     -11.2896     XY      -0.0000     YY     -11.2896
        XZ       0.0000     YZ      -0.0000     ZZ      -8.3456

 Total job time:  10.26s(wall), 32.94s(cpu)
        *  Thank you very much for using Q-Chem.  Have a nice day.  *
