 Q-Chem 5.4 (devel), Q-Chem, Inc., Pleasanton, CA (2021)
 Q-Chem 5.4.1 for Intel X86 EM64T Linux

User input:
--------------------------------------------------------------
$comment
	H_Ethylene CAP-ADC(2) optz
	Basis: C: jun-TZ+4p1d, H: TZ
$end

$molecule
-1 1
C        -0.6645000000    0.0000000000   -0.1764707059
C         0.6645000000    0.0000000000   -0.1764707059
H        -1.1590800000    0.0000000000    0.7858782941
H         1.1590800000    0.0000000000    0.7858782941
H        -1.1590800000    0.0000000000   -1.1388187059
H         1.1590800000    0.0000000000   -1.1388187059
H         0.0000000000    0.0000000000    2.8235292941
$end

$rem
	basis gen
	method adc(2)
        EE_STATES [0,10,0,0]
	scf_convergence 8
	thresh 14
	adc_cap 1
	cap_type 2
	cap_x 1500
	cap_x_end 5000
	cap_x_step 500
	xc_grid 000250000974
	adc_print 3
	adc_davidson_conv 5
	adc_nguess_singles 100
	adc_nguess_doubles 50
	adc_davidson_maxsubspace 400
	adc_davidson_maxiter 40
	adc_davidson_thresh 14
	mem_total 95000
	threads 12
$end

$basis
C     1
S    8   1.00
   8236.0000000              0.0005310
   1235.0000000              0.0041080
    280.8000000              0.0210870
     79.2700000              0.0818530
     25.5900000              0.2348170
      8.9970000              0.4344010
      3.3190000              0.3461290
      0.3643000             -0.0089830
S    1   1.00
      0.9059000              1.0000000
S    8   1.00
   8236.0000000             -0.0001130
   1235.0000000             -0.0008780
    280.8000000             -0.0045400
     79.2700000             -0.0181330
     25.5900000             -0.0557600
      8.9970000             -0.1268950
      3.3190000             -0.1703520
      0.3643000              0.5986840
S    1   1.00
      0.1285000              1.0000000
S    1   1.00
      0.0440200              1.0000000
P    3   1.00
     18.7100000              0.0140310
      4.1330000              0.0868660
      1.2000000              0.2902160
P    1   1.00
      0.3827000              1.0000000
P    1   1.00
      0.1209000              1.0000000
P    1   1.00
      0.0356900              1.0000000
P    1   1.0
      0.0237933 1.0
P    1   1.0
      0.0158622 1.0
P    1   1.0
      0.0105748 1.0
P    1   1.0
      0.0070498 1.0
D    1   1.00
      1.0970000              1.0000000
D    1   1.00
      0.3180000              1.0000000
D    1   1.00
      0.1000000              1.0000000
D    1   1.00
      0.0500000 1.0
F    1   1.00
      0.7610000              1.0000000
****
C     2
S    8   1.00
   8236.0000000              0.0005310
   1235.0000000              0.0041080
    280.8000000              0.0210870
     79.2700000              0.0818530
     25.5900000              0.2348170
      8.9970000              0.4344010
      3.3190000              0.3461290
      0.3643000             -0.0089830
S    1   1.00
      0.9059000              1.0000000
S    8   1.00
   8236.0000000             -0.0001130
   1235.0000000             -0.0008780
    280.8000000             -0.0045400
     79.2700000             -0.0181330
     25.5900000             -0.0557600
      8.9970000             -0.1268950
      3.3190000             -0.1703520
      0.3643000              0.5986840
S    1   1.00
      0.1285000              1.0000000
S    1   1.00
      0.0440200              1.0000000
P    3   1.00
     18.7100000              0.0140310
      4.1330000              0.0868660
      1.2000000              0.2902160
P    1   1.00
      0.3827000              1.0000000
P    1   1.00
      0.1209000              1.0000000
P    1   1.00
      0.0356900              1.0000000
P    1   1.0
      0.0237933 1.0
P    1   1.0
      0.0158622 1.0
P    1   1.0
      0.0105748 1.0
P    1   1.0
      0.0070498 1.0
D    1   1.00
      1.0970000              1.0000000
D    1   1.00
      0.3180000              1.0000000
D    1   1.00
      0.1000000              1.0000000
D    1   1.00
      0.0500000 1.0
F    1   1.00
      0.7610000              1.0000000
****
H     3
cc-pVTZ
****
H     4
cc-pVTZ
****
H     5
cc-pVTZ
****
H     6
cc-pVTZ
****
H     7
aug-cc-pVTZ
****
$end
--------------------------------------------------------------

             Standard Nuclear Orientation (Angstroms)
    I     Atom           X                Y                Z
 ----------------------------------------------------------------
    1      C      -0.6645000000    -0.0000000000    -0.1764707059
    2      C       0.6645000000     0.0000000000    -0.1764707059
    3      H      -1.1590800000    -0.0000000000     0.7858782941
    4      H       1.1590800000     0.0000000000     0.7858782941
    5      H      -1.1590800000    -0.0000000000    -1.1388187059
    6      H       1.1590800000     0.0000000000    -1.1388187059
    7      H       0.0000000000     0.0000000000     2.8235292941
 ----------------------------------------------------------------

   11     -78.5467008293      6.03E-09 Convergence criterion met
 Total energy in the final basis set = -78.54670083
  Excited state 1 (singlet, A2)                                    [converged]
  Term symbol:  1 (1) A2                                    R^2 =  3.49426e-10
  Excitation energy:                                               1.208070 eV
  Excited state 2 (singlet, A2)                                    [converged]
  Term symbol:  2 (1) A2                                    R^2 =  1.65947e-09
  Excitation energy:                                               1.942706 eV
  Excited state 3 (singlet, A2)                                    [converged]
  Term symbol:  3 (1) A2                                    R^2 =  9.83659e-09
  Excitation energy:                                               2.877110 eV
  Excited state 4 (singlet, A2)                                    [converged]
  Term symbol:  4 (1) A2                                    R^2 =  1.50921e-08
  Excitation energy:                                               3.692167 eV
  Excited state 5 (singlet, A2)                                    [converged]
  Term symbol:  5 (1) A2                                    R^2 =  4.91658e-08
  Excitation energy:                                               5.495670 eV
  Excited state 6 (singlet, A2)                                    [converged]
  Term symbol:  6 (1) A2                                    R^2 =  8.04705e-10
  Excitation energy:                                               5.839918 eV
  Excited state 7 (singlet, A2)                                    [converged]
  Term symbol:  7 (1) A2                                    R^2 =  1.59085e-06
  Excitation energy:                                               6.014108 eV
  Excited state 8 (singlet, A2)                                    [converged]
  Term symbol:  8 (1) A2                                    R^2 =  1.30355e-08
  Excitation energy:                                               6.027287 eV
  Excited state 9 (singlet, A2)                                    [converged]
  Term symbol:  9 (1) A2                                    R^2 =  2.65710e-07
  Excitation energy:                                               6.043927 eV
  Excited state 10 (singlet, A2)                                    [converged]
  Term symbol:  10 (1) A2                                   R^2 =  1.52665e-09
  Excitation energy:                                               6.120665 eV
  Excitation energy:                                               0.734636 eV
  Excitation energy:                                               1.669040 eV
  Excitation energy:                                               0.934404 eV
  Excitation energy:                                               2.484097 eV
  Excitation energy:                                               1.749461 eV
  Excitation energy:                                               0.815057 eV
  Excitation energy:                                               4.287599 eV
  Excitation energy:                                               3.552963 eV
  Excitation energy:                                               2.618559 eV
  Excitation energy:                                               1.803502 eV
  Excitation energy:                                               4.631847 eV
  Excitation energy:                                               3.897211 eV
  Excitation energy:                                               2.962807 eV
  Excitation energy:                                               2.147750 eV
  Excitation energy:                                               0.344248 eV
  Excitation energy:                                               4.806037 eV
  Excitation energy:                                               4.071401 eV
  Excitation energy:                                               3.136998 eV
  Excitation energy:                                               2.321940 eV
  Excitation energy:                                               0.518438 eV
  Excitation energy:                                               0.174190 eV
  Excitation energy:                                               4.819217 eV
  Excitation energy:                                               4.084581 eV
  Excitation energy:                                               3.150177 eV
  Excitation energy:                                               2.335120 eV
  Excitation energy:                                               0.531618 eV
  Excitation energy:                                               0.187370 eV
  Excitation energy:                                               0.013179 eV
  Excitation energy:                                               4.835857 eV
  Excitation energy:                                               4.101221 eV
  Excitation energy:                                               3.166817 eV
  Excitation energy:                                               2.351760 eV
  Excitation energy:                                               0.548258 eV
  Excitation energy:                                               0.204010 eV
  Excitation energy:                                               0.029819 eV
  Excitation energy:                                               0.016640 eV
  Excitation energy:                                               4.912595 eV
  Excitation energy:                                               4.177959 eV
  Excitation energy:                                               3.243555 eV
  Excitation energy:                                               2.428498 eV
  Excitation energy:                                               0.624995 eV
  Excitation energy:                                               0.280747 eV
  Excitation energy:                                               0.106557 eV
  Excitation energy:                                               0.093378 eV
  Excitation energy:                                               0.076738 eV

             Orbital Energies (a.u.) and Symmetries
 --------------------------------------------------------------

 Alpha MOs, Restricted
 -- Occupied --
-11.066 -11.064  -0.878  -0.622  -0.498  -0.409  -0.352  -0.218
  1 A1    1 B1    2 A1    2 B1    3 A1    4 A1    3 B1    1 B2
 -0.048
  5 A1

 Beta MOs, Restricted
 -- Occupied --
-11.066 -11.064  -0.878  -0.622  -0.498  -0.409  -0.352  -0.218
  1 A1    1 B1    2 A1    2 B1    3 A1    4 A1    3 B1    1 B2
 -0.048
  5 A1

          Ground-State Mulliken Net Atomic Charges

     Atom                 Charge (a.u.)
  ----------------------------------------
      1 C                    -0.574973
      2 C                    -0.574973
      3 H                     0.211334
      4 H                     0.211334
      5 H                     0.143848
      6 H                     0.143848
      7 H                    -0.560417
  ----------------------------------------
  Sum of atomic charges =    -1.000000

                    Cartesian Multipole Moments
 -----------------------------------------------------------------
    Charge (ESU x 10^10)
                -4.8032
    Dipole Moment (Debye)
         X       0.0000      Y      -0.0000      Z     -11.8478
       Tot      11.8478
    Quadrupole Moments (Debye-Ang)
        XX     -23.1333     XY       0.0000     YY     -24.8048
        XZ      -0.0000     YZ       0.0000     ZZ     -56.8445

 Total job time:  281.87s(wall), 1320.20s(cpu)
        *  Thank you very much for using Q-Chem.  Have a nice day.  *
