 Q-Chem 5.4 (devel), Q-Chem, Inc., Pleasanton, CA (2021)
 Q-Chem 5.4.1 for Intel X86 EM64T Linux

User input:
--------------------------------------------------------------
$molecule
0 2
C         0.0000000000    0.0000000000    0.8417902907
C         0.0000000000    0.0000000000   -0.4872097093
H         0.9623488518    0.0000000000    1.3363703127
H         0.9623489048    0.0000000000   -0.9817896873
H        -0.9623488518    0.0000000000    1.3363703127
H        -0.9623489048    0.0000000000   -0.9817896873
H         0.0000000000    0.0000000000   -2.8366446508
$end
$rem
   METHOD HF
   BASIS sto-3g
$end
--------------------------------------------------------------

             Standard Nuclear Orientation (Angstroms)
    I     Atom           X                Y                Z
 ----------------------------------------------------------------
    1      C       0.0000000000     0.0000000000     0.8417902855
    2      C       0.0000000000     0.0000000000    -0.4872097145
    3      H       0.9623488518     0.0000000000     1.3363703075
    4      H       0.9623489048     0.0000000000    -0.9817896925
    5      H      -0.9623488518     0.0000000000     1.3363703075
    6      H      -0.9623489048     0.0000000000    -0.9817896925
    7      H       0.0000000000     0.0000000000    -2.8366446560
 ----------------------------------------------------------------

   10     -77.5253450650      4.83e-06  Convergence criterion met
 Total energy in the final basis set =      -77.5253450650

             Orbital Energies (a.u.) and Symmetries
 --------------------------------------------------------------

 Alpha MOs, Unrestricted
 -- Occupied --
-11.015 -11.014  -0.985  -0.739  -0.620  -0.531  -0.472  -0.433
  1 A1    2 A1    3 A1    4 A1    1 B1    5 A1    2 B1    6 A1
 -0.326
  1 B2

 Beta MOs, Unrestricted
 -- Occupied --
-11.015 -11.014  -0.983  -0.734  -0.619  -0.511  -0.471  -0.325
  1 A1    2 A1    3 A1    4 A1    1 B1    5 A1    2 B1    1 B2

          Ground-State Mulliken Net Atomic Charges

     Atom                 Charge (a.u.)    Spin (a.u.)
  --------------------------------------------------------
      1 C                    -0.129165       0.014534
      2 C                    -0.129249      -0.001813
      3 H                     0.064768      -0.000829
      4 H                     0.066489      -0.002409
      5 H                     0.064768      -0.000829
      6 H                     0.066489      -0.002409
      7 H                    -0.004100       0.993756
  --------------------------------------------------------
  Sum of atomic charges =     0.000000

                    Cartesian Multipole Moments
 -----------------------------------------------------------------
    Charge (ESU x 10^10)
                 0.0000
    Dipole Moment (Debye)
         X       0.0000      Y      -0.0000      Z       0.0576
       Tot       0.0576
    Quadrupole Moments (Debye-Ang)
        XX     -12.3421     XY       0.0000     YY     -14.3338
        XZ       0.0000     YZ       0.0000     ZZ     -13.5244

 Total job time:  0.14s(wall), 0.11s(cpu)
        *  Thank you very much for using Q-Chem.  Have a nice day.  *
