 Q-Chem 5.4 (devel), Q-Chem, Inc., Pleasanton, CA (2021)
 Q-Chem 5.4.1 for Intel X86 EM64T Linux

User input:
--------------------------------------------------------------
$comment
	Ethylene CAP-EOM-CCSD
	Basis: C/7H: jun-TZ+4p1d, H: TZ
$end

$molecule
-1 1
C        -0.6645000000    0.0000000000   -0.1764707059
C         0.6645000000    0.0000000000   -0.1764707059
H        -1.1590800000    0.0000000000    0.7858782941
H         1.1590800000    0.0000000000    0.7858782941
H        -1.1590800000    0.0000000000   -1.1388187059
H         1.1590800000    0.0000000000   -1.1388187059
H         0.0000000000    0.0000000000    2.8235292941
$end

$rem
	method eom-ccsd
	basis gen
        EE_STATES [0,10,0,0]
	complex_ccman 1
	xc_grid 000250000974
	scf_convergence 8
	thresh 14
	mem_total 95000
	threads 12
$end

$complex_ccman
	cap_type 2
	proj_cap 3
	cap_eta 300
	cap_x 3500
$end

$basis
C     1
S    8   1.00
   8236.0000000              0.0005310
   1235.0000000              0.0041080
    280.8000000              0.0210870
     79.2700000              0.0818530
     25.5900000              0.2348170
      8.9970000              0.4344010
      3.3190000              0.3461290
      0.3643000             -0.0089830
S    1   1.00
      0.9059000              1.0000000
S    8   1.00
   8236.0000000             -0.0001130
   1235.0000000             -0.0008780
    280.8000000             -0.0045400
     79.2700000             -0.0181330
     25.5900000             -0.0557600
      8.9970000             -0.1268950
      3.3190000             -0.1703520
      0.3643000              0.5986840
S    1   1.00
      0.1285000              1.0000000
S    1   1.00
      0.0440200              1.0000000
P    3   1.00
     18.7100000              0.0140310
      4.1330000              0.0868660
      1.2000000              0.2902160
P    1   1.00
      0.3827000              1.0000000
P    1   1.00
      0.1209000              1.0000000
P    1   1.00
      0.0356900              1.0000000
P    1   1.0
      0.0237933 1.0
P    1   1.0
      0.0158622 1.0
P    1   1.0
      0.0105748 1.0
P    1   1.0
      0.0070498 1.0
D    1   1.00
      1.0970000              1.0000000
D    1   1.00
      0.3180000              1.0000000
D    1   1.00
      0.1000000              1.0000000
D    1   1.00
      0.0500000 1.0
F    1   1.00
      0.7610000              1.0000000
****
C     2
S    8   1.00
   8236.0000000              0.0005310
   1235.0000000              0.0041080
    280.8000000              0.0210870
     79.2700000              0.0818530
     25.5900000              0.2348170
      8.9970000              0.4344010
      3.3190000              0.3461290
      0.3643000             -0.0089830
S    1   1.00
      0.9059000              1.0000000
S    8   1.00
   8236.0000000             -0.0001130
   1235.0000000             -0.0008780
    280.8000000             -0.0045400
     79.2700000             -0.0181330
     25.5900000             -0.0557600
      8.9970000             -0.1268950
      3.3190000             -0.1703520
      0.3643000              0.5986840
S    1   1.00
      0.1285000              1.0000000
S    1   1.00
      0.0440200              1.0000000
P    3   1.00
     18.7100000              0.0140310
      4.1330000              0.0868660
      1.2000000              0.2902160
P    1   1.00
      0.3827000              1.0000000
P    1   1.00
      0.1209000              1.0000000
P    1   1.00
      0.0356900              1.0000000
P    1   1.0
      0.0237933 1.0
P    1   1.0
      0.0158622 1.0
P    1   1.0
      0.0105748 1.0
P    1   1.0
      0.0070498 1.0
D    1   1.00
      1.0970000              1.0000000
D    1   1.00
      0.3180000              1.0000000
D    1   1.00
      0.1000000              1.0000000
D    1   1.00
      0.0500000 1.0
F    1   1.00
      0.7610000              1.0000000
****
H     3
cc-pVTZ
****
H     4
cc-pVTZ
****
H     5
cc-pVTZ
****
H     6
cc-pVTZ
****
H     7
aug-cc-pVTZ
****
$end
--------------------------------------------------------------

             Standard Nuclear Orientation (Angstroms)
    I     Atom           X                Y                Z
 ----------------------------------------------------------------
    1      C      -0.6645000000    -0.0000000000    -0.1764707059
    2      C       0.6645000000     0.0000000000    -0.1764707059
    3      H      -1.1590800000    -0.0000000000     0.7858782941
    4      H       1.1590800000     0.0000000000     0.7858782941
    5      H      -1.1590800000    -0.0000000000    -1.1388187059
    6      H       1.1590800000     0.0000000000    -1.1388187059
    7      H       0.0000000000     0.0000000000     2.8235292941
 ----------------------------------------------------------------

   11     -78.5467008266      6.74e-09  Convergence criterion met
 Total energy in the final basis set =      -78.5467008266
 CCSD total energy          = -78.94732681
 EOMEE transition 1/A2
 Total energy = -78.90290659 a.u.  Excitation energy = 1.2087 eV.
 EOMEE transition 2/A2
 Total energy = -78.87738216 a.u.  Excitation energy = 1.9033 eV.
 EOMEE transition 3/A2
 Total energy = -78.84328944 a.u.  Excitation energy = 2.8310 eV.
 EOMEE transition 4/A2
 Total energy = -78.81143982 a.u.  Excitation energy = 3.6977 eV.
 EOMEE transition 5/A2
 Total energy = -78.74717042 a.u.  Excitation energy = 5.4465 eV.
 EOMEE transition 6/A2
 Total energy = -78.73172093 a.u.  Excitation energy = 5.8669 eV.
 EOMEE transition 7/A2
 Total energy = -78.71862042 a.u.  Excitation energy = 6.2234 eV.
 EOMEE transition 8/A2
 Total energy = -78.70338929 a.u.  Excitation energy = 6.6379 eV.
 EOMEE transition 9/A2
 Total energy = -78.70100656 a.u.  Excitation energy = 6.7027 eV.
 EOMEE transition 10/A2
 Total energy = -78.67692689 a.u.  Excitation energy = 7.3580 eV.
 Excited state properties for  EOMEE-CCSD transition 1/A2
 Excited state properties for  EOMEE-CCSD transition 2/A2
 Excited state properties for  EOMEE-CCSD transition 3/A2
 Excited state properties for  EOMEE-CCSD transition 4/A2
 Excited state properties for  EOMEE-CCSD transition 5/A2
 Excited state properties for  EOMEE-CCSD transition 6/A2
 Excited state properties for  EOMEE-CCSD transition 7/A2
 Excited state properties for  EOMEE-CCSD transition 8/A2
 Excited state properties for  EOMEE-CCSD transition 9/A2
 Excited state properties for  EOMEE-CCSD transition 10/A2

             Orbital Energies (a.u.) and Symmetries
 --------------------------------------------------------------

 Alpha MOs, Restricted
 -- Occupied --
-11.066 -11.064  -0.878  -0.622  -0.498  -0.409  -0.352  -0.218
  1 A1    1 B1    2 A1    2 B1    3 A1    4 A1    3 B1    1 B2
 -0.048
  5 A1

 Beta MOs, Restricted
 -- Occupied --
-11.066 -11.064  -0.878  -0.622  -0.498  -0.409  -0.352  -0.218
  1 A1    1 B1    2 A1    2 B1    3 A1    4 A1    3 B1    1 B2
 -0.048
  5 A1

          Ground-State Mulliken Net Atomic Charges

     Atom                 Charge (a.u.)
  ----------------------------------------
      1 C                    -0.574972
      2 C                    -0.574972
      3 H                     0.211333
      4 H                     0.211333
      5 H                     0.143847
      6 H                     0.143847
      7 H                    -0.560417
  ----------------------------------------
  Sum of atomic charges =    -1.000000

                    Cartesian Multipole Moments
 -----------------------------------------------------------------
    Charge (ESU x 10^10)
                -4.8032
    Dipole Moment (Debye)
         X       0.0000      Y       0.0000      Z     -11.8478
       Tot      11.8478
    Quadrupole Moments (Debye-Ang)
        XX     -23.1333     XY       0.0000     YY     -24.8048
        XZ       0.0000     YZ      -0.0000     ZZ     -56.8445

 Total job time:  294.94s(wall), 1865.59s(cpu)
        *  Thank you very much for using Q-Chem.  Have a nice day.  *
