 Q-Chem 5.4 (devel), Q-Chem, Inc., Pleasanton, CA (2021)
 Q-Chem 5.4.1 for Intel X86 EM64T Linux

User input:
--------------------------------------------------------------
$comment
	Ethylene CAP-EOM-CCSD
	Basis: C/7H: jun-TZ+4p1d, H: TZ
$end

$molecule
-1 1
C         0.0000000000    0.0000000000    0.8417902907
C         0.0000000000    0.0000000000   -0.4872097093
H         0.9623488518    0.0000000000    1.3363703127
H         0.9623489048    0.0000000000   -0.9817896873
H        -0.9623488518    0.0000000000    1.3363703127
H        -0.9623489048    0.0000000000   -0.9817896873
H         0.0000000000    0.0000000000   -10.4872097093
$end

$rem
	method eom-ccsd
	basis gen
        EE_STATES [0,0,0,10]
	complex_ccman 1
	xc_grid 000250000974
	scf_convergence 8
	thresh 14
	mem_total 95000
	threads 12
$end

$complex_ccman
	cap_type 2
	proj_cap 3
	cap_eta 300
	cap_x 3500
$end

$basis
C     1
S    8   1.00
   8236.0000000              0.0005310
   1235.0000000              0.0041080
    280.8000000              0.0210870
     79.2700000              0.0818530
     25.5900000              0.2348170
      8.9970000              0.4344010
      3.3190000              0.3461290
      0.3643000             -0.0089830
S    1   1.00
      0.9059000              1.0000000
S    8   1.00
   8236.0000000             -0.0001130
   1235.0000000             -0.0008780
    280.8000000             -0.0045400
     79.2700000             -0.0181330
     25.5900000             -0.0557600
      8.9970000             -0.1268950
      3.3190000             -0.1703520
      0.3643000              0.5986840
S    1   1.00
      0.1285000              1.0000000
S    1   1.00
      0.0440200              1.0000000
P    3   1.00
     18.7100000              0.0140310
      4.1330000              0.0868660
      1.2000000              0.2902160
P    1   1.00
      0.3827000              1.0000000
P    1   1.00
      0.1209000              1.0000000
P    1   1.00
      0.0356900              1.0000000
P    1   1.0
      0.0237933 1.0
P    1   1.0
      0.0158622 1.0
P    1   1.0
      0.0105748 1.0
P    1   1.0
      0.0070498 1.0
D    1   1.00
      1.0970000              1.0000000
D    1   1.00
      0.3180000              1.0000000
D    1   1.00
      0.1000000              1.0000000
D    1   1.00
      0.0500000 1.0
F    1   1.00
      0.7610000              1.0000000
****
C     2
S    8   1.00
   8236.0000000              0.0005310
   1235.0000000              0.0041080
    280.8000000              0.0210870
     79.2700000              0.0818530
     25.5900000              0.2348170
      8.9970000              0.4344010
      3.3190000              0.3461290
      0.3643000             -0.0089830
S    1   1.00
      0.9059000              1.0000000
S    8   1.00
   8236.0000000             -0.0001130
   1235.0000000             -0.0008780
    280.8000000             -0.0045400
     79.2700000             -0.0181330
     25.5900000             -0.0557600
      8.9970000             -0.1268950
      3.3190000             -0.1703520
      0.3643000              0.5986840
S    1   1.00
      0.1285000              1.0000000
S    1   1.00
      0.0440200              1.0000000
P    3   1.00
     18.7100000              0.0140310
      4.1330000              0.0868660
      1.2000000              0.2902160
P    1   1.00
      0.3827000              1.0000000
P    1   1.00
      0.1209000              1.0000000
P    1   1.00
      0.0356900              1.0000000
P    1   1.0
      0.0237933 1.0
P    1   1.0
      0.0158622 1.0
P    1   1.0
      0.0105748 1.0
P    1   1.0
      0.0070498 1.0
D    1   1.00
      1.0970000              1.0000000
D    1   1.00
      0.3180000              1.0000000
D    1   1.00
      0.1000000              1.0000000
D    1   1.00
      0.0500000 1.0
F    1   1.00
      0.7610000              1.0000000
****
H     3
cc-pVTZ
****
H     4
cc-pVTZ
****
H     5
cc-pVTZ
****
H     6
cc-pVTZ
****
H     7
aug-cc-pVTZ
****
$end
--------------------------------------------------------------

             Standard Nuclear Orientation (Angstroms)
    I     Atom           X                Y                Z
 ----------------------------------------------------------------
    1      C       0.0000000000     0.0000000000     1.2918235242
    2      C       0.0000000000     0.0000000000    -0.0371764758
    3      H       0.9623488518     0.0000000000     1.7864035462
    4      H       0.9623489048     0.0000000000    -0.5317564538
    5      H      -0.9623488518     0.0000000000     1.7864035462
    6      H      -0.9623489048     0.0000000000    -0.5317564538
    7      H       0.0000000000     0.0000000000   -10.0371764758
 ----------------------------------------------------------------

   12     -78.5348628346      1.52e-09  Convergence criterion met
 Total energy in the final basis set =      -78.5348628346
 CCSD total energy          = -78.93011009
 EOMEE transition 1/B2
 Total energy = -78.91049244 a.u.  Excitation energy = 0.5338 eV.
 EOMEE transition 2/B2
 Total energy = -78.90532342 a.u.  Excitation energy = 0.6745 eV.
 EOMEE transition 3/B2
 Total energy = -78.88732442 a.u.  Excitation energy = 1.1643 eV.
 EOMEE transition 4/B2
 Total energy = -78.87969916 a.u.  Excitation energy = 1.3718 eV.
 EOMEE transition 5/B2
 Total energy = -78.84587538 a.u.  Excitation energy = 2.2921 eV.
 EOMEE transition 6/B2
 Total energy = -78.84422546 a.u.  Excitation energy = 2.3370 eV.
 EOMEE transition 7/B2
 Total energy = -78.81090353 a.u.  Excitation energy = 3.2438 eV.
 EOMEE transition 8/B2
 Total energy = -78.77336114 a.u.  Excitation energy = 4.2654 eV.
 EOMEE transition 9/B2
 Total energy = -78.74796416 a.u.  Excitation energy = 4.9564 eV.
 EOMEE transition 10/B2
 Total energy = -78.72798798 a.u.  Excitation energy = 5.5000 eV.
 Excited state properties for  EOMEE-CCSD transition 1/B2
 Excited state properties for  EOMEE-CCSD transition 2/B2
 Excited state properties for  EOMEE-CCSD transition 3/B2
 Excited state properties for  EOMEE-CCSD transition 4/B2
 Excited state properties for  EOMEE-CCSD transition 5/B2
 Excited state properties for  EOMEE-CCSD transition 6/B2
 Excited state properties for  EOMEE-CCSD transition 7/B2
 Excited state properties for  EOMEE-CCSD transition 8/B2
 Excited state properties for  EOMEE-CCSD transition 9/B2
 Excited state properties for  EOMEE-CCSD transition 10/B2

             Orbital Energies (a.u.) and Symmetries
 --------------------------------------------------------------

 Alpha MOs, Restricted
 -- Occupied --
-11.177 -11.175  -0.989  -0.730  -0.610  -0.517  -0.465  -0.327
  1 A1    2 A1    3 A1    4 A1    1 B1    5 A1    2 B1    1 B2
 -0.031
  6 A1

 Beta MOs, Restricted
 -- Occupied --
-11.177 -11.175  -0.989  -0.730  -0.610  -0.517  -0.465  -0.327
  1 A1    2 A1    3 A1    4 A1    1 B1    5 A1    2 B1    1 B2
 -0.031
  6 A1

          Ground-State Mulliken Net Atomic Charges

     Atom                 Charge (a.u.)
  ----------------------------------------
      1 C                    -0.122064
      2 C                    -0.781526
      3 H                     0.169417
      4 H                     0.180730
      5 H                     0.169417
      6 H                     0.180730
      7 H                    -0.796704
  ----------------------------------------
  Sum of atomic charges =    -1.000000

                    Cartesian Multipole Moments
 -----------------------------------------------------------------
    Charge (ESU x 10^10)
                -4.8032
    Dipole Moment (Debye)
         X      -0.0000      Y      -0.0000      Z      44.9532
       Tot      44.9532
    Quadrupole Moments (Debye-Ang)
        XX     -28.5959     XY      -0.0000     YY     -32.7946
        XZ      -0.0000     YZ      -0.0000     ZZ    -475.1639

 Total job time:  395.68s(wall), 2636.58s(cpu)
        *  Thank you very much for using Q-Chem.  Have a nice day.  *
