 Q-Chem 5.4 (devel), Q-Chem, Inc., Pleasanton, CA (2021)
 Q-Chem 5.4.1 for Intel X86 EM64T Linux

User input:
--------------------------------------------------------------
$comment
	H_Ethylene CAP-ADC(3) close y
	Basis: C: jun-TZ+4p1d, H: TZ
$end

$molecule
-1 1
C       0.6645000000     0.0000000000    -0.1470587929
C      -0.6645000000     0.0000000044    -0.1470587929
H       1.1590799243     0.9623488970    -0.1470589766
H      -1.1590799243     0.9623488970    -0.1470589766
H       1.1590799243    -0.9623488970    -0.1470589766
H      -1.1590799243    -0.9623488970    -0.1470589766
H       0.0000000000     0.0000000000     2.8529412071
$end

$rem
	basis gen
	method adc(2)
        EE_STATES [0,0,10,0]
	scf_convergence 8
	thresh 14
	adc_cap 1
	cap_type 2
	cap_x 1500
	cap_x_end 5000
	cap_x_step 500
	xc_grid 000250000974
	adc_print 3
	adc_davidson_conv 5
	adc_nguess_singles 100
	adc_nguess_doubles 50
	adc_davidson_maxsubspace 400
	adc_davidson_maxiter 40
	adc_davidson_thresh 14
	mem_total 95000
	threads 12
$end
$basis
C     1
S    8   1.00
   8236.0000000              0.0005310
   1235.0000000              0.0041080
    280.8000000              0.0210870
     79.2700000              0.0818530
     25.5900000              0.2348170
      8.9970000              0.4344010
      3.3190000              0.3461290
      0.3643000             -0.0089830
S    1   1.00
      0.9059000              1.0000000
S    8   1.00
   8236.0000000             -0.0001130
   1235.0000000             -0.0008780
    280.8000000             -0.0045400
     79.2700000             -0.0181330
     25.5900000             -0.0557600
      8.9970000             -0.1268950
      3.3190000             -0.1703520
      0.3643000              0.5986840
S    1   1.00
      0.1285000              1.0000000
S    1   1.00
      0.0440200              1.0000000
P    3   1.00
     18.7100000              0.0140310
      4.1330000              0.0868660
      1.2000000              0.2902160
P    1   1.00
      0.3827000              1.0000000
P    1   1.00
      0.1209000              1.0000000
P    1   1.00
      0.0356900              1.0000000
P    1   1.0
      0.0237933 1.0
P    1   1.0
      0.0158622 1.0
P    1   1.0
      0.0105748 1.0
P    1   1.0
      0.0070498 1.0
D    1   1.00
      1.0970000              1.0000000
D    1   1.00
      0.3180000              1.0000000
D    1   1.00
      0.1000000              1.0000000
D    1   1.00
      0.0500000 1.0
F    1   1.00
      0.7610000              1.0000000
****
C     2
S    8   1.00
   8236.0000000              0.0005310
   1235.0000000              0.0041080
    280.8000000              0.0210870
     79.2700000              0.0818530
     25.5900000              0.2348170
      8.9970000              0.4344010
      3.3190000              0.3461290
      0.3643000             -0.0089830
S    1   1.00
      0.9059000              1.0000000
S    8   1.00
   8236.0000000             -0.0001130
   1235.0000000             -0.0008780
    280.8000000             -0.0045400
     79.2700000             -0.0181330
     25.5900000             -0.0557600
      8.9970000             -0.1268950
      3.3190000             -0.1703520
      0.3643000              0.5986840
S    1   1.00
      0.1285000              1.0000000
S    1   1.00
      0.0440200              1.0000000
P    3   1.00
     18.7100000              0.0140310
      4.1330000              0.0868660
      1.2000000              0.2902160
P    1   1.00
      0.3827000              1.0000000
P    1   1.00
      0.1209000              1.0000000
P    1   1.00
      0.0356900              1.0000000
P    1   1.0
      0.0237933 1.0
P    1   1.0
      0.0158622 1.0
P    1   1.0
      0.0105748 1.0
P    1   1.0
      0.0070498 1.0
D    1   1.00
      1.0970000              1.0000000
D    1   1.00
      0.3180000              1.0000000
D    1   1.00
      0.1000000              1.0000000
D    1   1.00
      0.0500000 1.0
F    1   1.00
      0.7610000              1.0000000
****
H     3
cc-pVTZ
****
H     4
cc-pVTZ
****
H     5
cc-pVTZ
****
H     6
cc-pVTZ
****
H     7
aug-cc-pVTZ
****
$end
--------------------------------------------------------------

             Standard Nuclear Orientation (Angstroms)
    I     Atom           X                Y                Z
 ----------------------------------------------------------------
    1      C       0.6645000000    -0.0000000001    -0.1764705450
    2      C      -0.6645000000     0.0000000010    -0.1764705450
    3      H       1.1590799219     0.9623488982    -0.1764707297
    4      H      -1.1590799219     0.9623488982    -0.1764707297
    5      H       1.1590799219    -0.9623488982    -0.1764707297
    6      H      -1.1590799219    -0.9623489016    -0.1764707278
    7      H       0.0000000000     0.0000000012     2.8235294550
 ----------------------------------------------------------------

   12     -78.5316871707      2.83E-09 Convergence criterion met
 Total energy in the final basis set = -78.53168717
  Excited state 1 (singlet, B1)                                    [converged]
  Term symbol:  1 (1) B1                                    R^2 =  8.29272e-09
  Excitation energy:                                               0.596391 eV
  Excited state 2 (singlet, B1)                                    [converged]
  Term symbol:  2 (1) B1                                    R^2 =  6.15573e-09
  Excitation energy:                                               0.769802 eV
  Excited state 3 (singlet, B1)                                    [converged]
  Term symbol:  3 (1) B1                                    R^2 =  2.62909e-08
  Excitation energy:                                               1.192367 eV
  Excited state 4 (singlet, B1)                                    [converged]
  Term symbol:  4 (1) B1                                    R^2 =  2.79942e-08
  Excitation energy:                                               1.517587 eV
  Excited state 5 (singlet, B1)                                    [converged]
  Term symbol:  5 (1) B1                                    R^2 =  5.48894e-08
  Excitation energy:                                               2.172816 eV
  Excited state 6 (singlet, B1)                                    [converged]
  Term symbol:  6 (1) B1                                    R^2 =  1.87335e-07
  Excitation energy:                                               2.493129 eV
  Excited state 7 (singlet, B1)                                    [converged]
  Term symbol:  7 (1) B1                                    R^2 =  4.19848e-07
  Excitation energy:                                               3.293343 eV
  Excited state 8 (singlet, B1)                                    [converged]
  Term symbol:  8 (1) B1                                    R^2 =  2.00357e-07
  Excitation energy:                                               3.766170 eV
  Excited state 9 (singlet, B1)                                    [converged]
  Term symbol:  9 (1) B1                                    R^2 =  1.60872e-06
  Excitation energy:                                               4.919049 eV
  Excited state 10 (singlet, B1)                                    [converged]
  Term symbol:  10 (1) B1                                   R^2 =  4.08759e-06
  Excitation energy:                                               5.084543 eV
  Excitation energy:                                               0.173412 eV
  Excitation energy:                                               0.595976 eV
  Excitation energy:                                               0.422564 eV
  Excitation energy:                                               0.921196 eV
  Excitation energy:                                               0.747785 eV
  Excitation energy:                                               0.325220 eV
  Excitation energy:                                               1.576425 eV
  Excitation energy:                                               1.403013 eV
  Excitation energy:                                               0.980449 eV
  Excitation energy:                                               0.655229 eV
  Excitation energy:                                               1.896738 eV
  Excitation energy:                                               1.723326 eV
  Excitation energy:                                               1.300762 eV
  Excitation energy:                                               0.975542 eV
  Excitation energy:                                               0.320313 eV
  Excitation energy:                                               2.696952 eV
  Excitation energy:                                               2.523540 eV
  Excitation energy:                                               2.100976 eV
  Excitation energy:                                               1.775756 eV
  Excitation energy:                                               1.120527 eV
  Excitation energy:                                               0.800214 eV
  Excitation energy:                                               3.169779 eV
  Excitation energy:                                               2.996368 eV
  Excitation energy:                                               2.573803 eV
  Excitation energy:                                               2.248583 eV
  Excitation energy:                                               1.593354 eV
  Excitation energy:                                               1.273041 eV
  Excitation energy:                                               0.472827 eV
  Excitation energy:                                               4.322658 eV
  Excitation energy:                                               4.149246 eV
  Excitation energy:                                               3.726682 eV
  Excitation energy:                                               3.401462 eV
  Excitation energy:                                               2.746233 eV
  Excitation energy:                                               2.425920 eV
  Excitation energy:                                               1.625706 eV
  Excitation energy:                                               1.152879 eV
  Excitation energy:                                               4.488152 eV
  Excitation energy:                                               4.314740 eV
  Excitation energy:                                               3.892176 eV
  Excitation energy:                                               3.566955 eV
  Excitation energy:                                               2.911727 eV
  Excitation energy:                                               2.591414 eV
  Excitation energy:                                               1.791200 eV
  Excitation energy:                                               1.318373 eV
  Excitation energy:                                               0.165494 eV

             Orbital Energies (a.u.) and Symmetries
 --------------------------------------------------------------

 Alpha MOs, Restricted
 -- Occupied --
-11.078 -11.076  -0.887  -0.632  -0.511  -0.419  -0.368  -0.225
  1 A1    1 B1    2 A1    2 B1    1 B2    3 A1    1 A2    4 A1
 -0.035
  5 A1

 Beta MOs, Restricted
 -- Occupied --
-11.078 -11.076  -0.887  -0.632  -0.511  -0.419  -0.368  -0.225
  1 A1    1 B1    2 A1    2 B1    1 B2    3 A1    1 A2    4 A1
 -0.035
  5 A1

          Ground-State Mulliken Net Atomic Charges

     Atom                 Charge (a.u.)
  ----------------------------------------
      1 C                    -0.471832
      2 C                    -0.471820
      3 H                     0.116194
      4 H                     0.116193
      5 H                     0.116194
      6 H                     0.116192
      7 H                    -0.521121
  ----------------------------------------
  Sum of atomic charges =    -1.000000

                    Cartesian Multipole Moments
 -----------------------------------------------------------------
    Charge (ESU x 10^10)
                -4.8032
    Dipole Moment (Debye)
         X       0.0000      Y      -0.0000      Z     -12.1495
       Tot      12.1495
    Quadrupole Moments (Debye-Ang)
        XX     -26.2026     XY       0.0000     YY     -22.5494
        XZ      -0.0000     YZ       0.0000     ZZ     -63.6172

 Total job time:  409.16s(wall), 2121.06s(cpu)
        *  Thank you very much for using Q-Chem.  Have a nice day.  *
