 Q-Chem 5.4 (devel), Q-Chem, Inc., Pleasanton, CA (2021)
 Q-Chem 5.4.1 for Intel X86 EM64T Linux

User input:
--------------------------------------------------------------
$molecule
-1 1
C         0.0000003663    0.4438502432    0.6645000000
C         0.0000003663    0.4438502432   -0.6645000000
H        -0.9623486337    0.4438522630    1.1590800000
H        -0.9623486337    0.4438522630   -1.1590800000
H         0.9623483663    0.4438482235    1.1590800000
H         0.9623483663    0.4438482235   -1.1590800000
H        -0.0000038605   -2.4438482235    0.0000000000
$end

$rem
   METHOD adc(2)
   BASIS gen
   PURECART 11
   EE_STATES [0,0,0,10]
   scf_convergence 8
   ADC_DAVIDSON_MAXITER 120
   ADC_DAVIDSON_MAXSUBSPACE 200
   adc_nguess_singles 100
   THRESH 14
   S2THRESH 14
   adc_davidson_conv 5
   adc_davidson_thresh 14
   THREADS 10
   MEM_TOTAL 95000
   STATE_ANALYSIS TRUE
$end
$basis
C 1
S   9   1.00
      6.665000D+03           6.920000D-04
      1.000000D+03           5.329000D-03
      2.280000D+02           2.707700D-02
      6.471000D+01           1.017180D-01
      2.106000D+01           2.747400D-01
      7.495000D+00           4.485640D-01
      2.797000D+00           2.850740D-01
      5.215000D-01           1.520400D-02
      1.596000D-01          -3.191000D-03
S   9   1.00
      6.665000D+03          -1.460000D-04
      1.000000D+03          -1.154000D-03
      2.280000D+02          -5.725000D-03
      6.471000D+01          -2.331200D-02
      2.106000D+01          -6.395500D-02
      7.495000D+00          -1.499810D-01
      2.797000D+00          -1.272620D-01
      5.215000D-01           5.445290D-01
      1.596000D-01           5.804960D-01
S   1   1.00
      1.596000D-01           1.000000D+00
S   1   1.00
      0.0469000              1.0000000
P   4   1.00
      9.439000D+00           3.810900D-02
      2.002000D+00           2.094800D-01
      5.456000D-01           5.085570D-01
      1.517000D-01           4.688420D-01
P   1   1.00
      1.517000D-01           1.000000D+00
P   1   1.00
      0.0691078      1.0000000
P   1   1.00
      0.0345539      1.0000000
D   1   1.00
      5.500000D-01           1.0000000
****
C 2
S   9   1.00
      6.665000D+03           6.920000D-04
      1.000000D+03           5.329000D-03
      2.280000D+02           2.707700D-02
      6.471000D+01           1.017180D-01
      2.106000D+01           2.747400D-01
      7.495000D+00           4.485640D-01
      2.797000D+00           2.850740D-01
      5.215000D-01           1.520400D-02
      1.596000D-01          -3.191000D-03
S   9   1.00
      6.665000D+03          -1.460000D-04
      1.000000D+03          -1.154000D-03
      2.280000D+02          -5.725000D-03
      6.471000D+01          -2.331200D-02
      2.106000D+01          -6.395500D-02
      7.495000D+00          -1.499810D-01
      2.797000D+00          -1.272620D-01
      5.215000D-01           5.445290D-01
      1.596000D-01           5.804960D-01
S   1   1.00
      1.596000D-01           1.000000D+00
S   1   1.00
      0.0469000              1.0000000
P   4   1.00
      9.439000D+00           3.810900D-02
      2.002000D+00           2.094800D-01
      5.456000D-01           5.085570D-01
      1.517000D-01           4.688420D-01
P   1   1.00
      1.517000D-01           1.000000D+00
P   1   1.00
      0.0691078      1.0000000
P   1   1.00
      0.0345539      1.0000000
D   1   1.00
      5.500000D-01           1.0000000
****
H 3
cc-pVDZ
****
H 4
cc-pVDZ
****
H 5
cc-pVDZ
****
H 6
cc-pVDZ
****
H 7
aug-cc-pVDZ
****
$end
--------------------------------------------------------------

             Standard Nuclear Orientation (Angstroms)
    I     Atom           X                Y                Z
 ----------------------------------------------------------------
    1      C       0.6645000000     0.0000000000    -0.1698646157
    2      C      -0.6645000000     0.0000002280    -0.1698646157
    3      H       1.1590800000     0.9623487720    -0.1698658521
    4      H      -1.1590800000     0.9623487720    -0.1698658521
    5      H       1.1590800000    -0.9623487720    -0.1698658521
    6      H      -1.1590800000    -0.9623487720    -0.1698658521
    7      H       0.0000000000     0.0000000000     2.7178338510
 ----------------------------------------------------------------

   12     -78.4931651181      2.23E-09 Convergence criterion met
 Total energy in the final basis set = -78.49316512
  Excited state 1 (singlet, B2)                                    [converged]
  Term symbol:  1 (1) B2                                    R^2 =  1.93094e-11
  Excitation energy:                                               1.680356 eV
  Excited state 2 (singlet, B2)                                    [converged]
  Term symbol:  2 (1) B2                                    R^2 =  4.94548e-10
  Excitation energy:                                               6.699155 eV
  Excited state 3 (singlet, B2)                                    [converged]
  Term symbol:  3 (1) B2                                    R^2 =  6.41454e-11
  Excitation energy:                                               6.981505 eV
  Excited state 4 (singlet, B2)                                    [converged]
  Term symbol:  4 (1) B2                                    R^2 =  1.86749e-10
  Excitation energy:                                               8.578312 eV
  Excited state 5 (singlet, B2)                                    [converged]
  Term symbol:  5 (1) B2                                    R^2 =  1.04104e-10
  Excitation energy:                                               8.990945 eV
  Excited state 6 (singlet, B2)                                    [converged]
  Term symbol:  6 (1) B2                                    R^2 =  3.53180e-10
  Excitation energy:                                               9.441423 eV
  Excited state 7 (singlet, B2)                                    [converged]
  Term symbol:  7 (1) B2                                    R^2 =  1.11720e-10
  Excitation energy:                                              10.636545 eV
  Excited state 8 (singlet, B2)                                    [converged]
  Term symbol:  8 (1) B2                                    R^2 =  7.14492e-06
  Excitation energy:                                              10.748105 eV
  Excited state 9 (singlet, B2)                                    [converged]
  Term symbol:  9 (1) B2                                    R^2 =  5.73149e-09
  Excitation energy:                                              11.043072 eV
  Excited state 10 (singlet, B2)                                    [converged]
  Term symbol:  10 (1) B2                                   R^2 =  1.04258e-09
  Excitation energy:                                              11.139039 eV

             Orbital Energies (a.u.) and Symmetries
 --------------------------------------------------------------

 Alpha MOs, Restricted
 -- Occupied --
-11.072 -11.071  -0.875  -0.619  -0.497  -0.404  -0.354  -0.209
  1 A1    1 B1    2 A1    2 B1    1 B2    3 A1    1 A2    4 A1
 -0.012
  5 A1

 Beta MOs, Restricted
 -- Occupied --
-11.072 -11.071  -0.875  -0.619  -0.497  -0.404  -0.354  -0.209
  1 A1    1 B1    2 A1    2 B1    1 B2    3 A1    1 A2    4 A1
 -0.012
  5 A1

          Ground-State Mulliken Net Atomic Charges

     Atom                 Charge (a.u.)
  ----------------------------------------
      1 C                    -0.349225
      2 C                    -0.349225
      3 H                     0.063030
      4 H                     0.063053
      5 H                     0.063045
      6 H                     0.063022
      7 H                    -0.553701
  ----------------------------------------
  Sum of atomic charges =    -1.000000

                    Cartesian Multipole Moments
 -----------------------------------------------------------------
    Charge (ESU x 10^10)
                -4.8032
    Dipole Moment (Debye)
         X       0.0000      Y      -0.0000      Z     -10.6339
       Tot      10.6339
    Quadrupole Moments (Debye-Ang)
        XX     -20.1457     XY       0.0000     YY     -19.0466
        XZ       0.0000     YZ       0.0000     ZZ     -54.6575

 Total job time:  201.62s(wall), 583.83s(cpu)
        *  Thank you very much for using Q-Chem.  Have a nice day.  *
