 Q-Chem 5.4 (devel), Q-Chem, Inc., Pleasanton, CA (2021)
 Q-Chem 5.4.1 for Intel X86 EM64T Linux

User input:
--------------------------------------------------------------
$molecule
-1 1
C        -0.6645000000    0.0000000000    3.6357614391
C         0.6645000000    0.0000000000    3.6357614391
H        -1.1590800000    0.0000000000    2.6734124391
H         1.1590800000    0.0000000000    2.6734124391
H        -1.1590800000    0.0000000000    4.5981094391
H         1.1590800000    0.0000000000    4.5981094391
O         0.0000000000    0.0000000000   -6.3644435413
H         0.0000000000    0.0000000000   -7.3299440706
$end
$rem
   METHOD adc(2)
   BASIS gen
   PURECART 11
   EE_STATES [10,0,0,0]
   scf_convergence 8
   ADC_DAVIDSON_MAXITER 120
   ADC_DAVIDSON_MAXSUBSPACE 200
   adc_nguess_singles 100
   THRESH 14
   S2THRESH 14
   adc_davidson_conv 5
   adc_davidson_thresh 14
   THREADS 10
   MEM_TOTAL 95000
   STATE_ANALYSIS TRUE
$end
$basis
C 1
S   9   1.00
      6.665000D+03           6.920000D-04
      1.000000D+03           5.329000D-03
      2.280000D+02           2.707700D-02
      6.471000D+01           1.017180D-01
      2.106000D+01           2.747400D-01
      7.495000D+00           4.485640D-01
      2.797000D+00           2.850740D-01
      5.215000D-01           1.520400D-02
      1.596000D-01          -3.191000D-03
S   9   1.00
      6.665000D+03          -1.460000D-04
      1.000000D+03          -1.154000D-03
      2.280000D+02          -5.725000D-03
      6.471000D+01          -2.331200D-02
      2.106000D+01          -6.395500D-02
      7.495000D+00          -1.499810D-01
      2.797000D+00          -1.272620D-01
      5.215000D-01           5.445290D-01
      1.596000D-01           5.804960D-01
S   1   1.00
      1.596000D-01           1.000000D+00
S   1   1.00
      0.0469000              1.0000000
P   4   1.00
      9.439000D+00           3.810900D-02
      2.002000D+00           2.094800D-01
      5.456000D-01           5.085570D-01
      1.517000D-01           4.688420D-01
P   1   1.00
      1.517000D-01           1.000000D+00
P   1   1.00
      0.0533248      1.0000000
P   1   1.00
      0.0266624      1.0000000
D   1   1.00
      5.500000D-01           1.0000000
****
C 2
S   9   1.00
      6.665000D+03           6.920000D-04
      1.000000D+03           5.329000D-03
      2.280000D+02           2.707700D-02
      6.471000D+01           1.017180D-01
      2.106000D+01           2.747400D-01
      7.495000D+00           4.485640D-01
      2.797000D+00           2.850740D-01
      5.215000D-01           1.520400D-02
      1.596000D-01          -3.191000D-03
S   9   1.00
      6.665000D+03          -1.460000D-04
      1.000000D+03          -1.154000D-03
      2.280000D+02          -5.725000D-03
      6.471000D+01          -2.331200D-02
      2.106000D+01          -6.395500D-02
      7.495000D+00          -1.499810D-01
      2.797000D+00          -1.272620D-01
      5.215000D-01           5.445290D-01
      1.596000D-01           5.804960D-01
S   1   1.00
      1.596000D-01           1.000000D+00
S   1   1.00
      0.0469000              1.0000000
P   4   1.00
      9.439000D+00           3.810900D-02
      2.002000D+00           2.094800D-01
      5.456000D-01           5.085570D-01
      1.517000D-01           4.688420D-01
P   1   1.00
      1.517000D-01           1.000000D+00
P   1   1.00
      0.0533248      1.0000000
P   1   1.00
      0.0266624      1.0000000
D   1   1.00
      5.500000D-01           1.0000000
****
H 3
cc-pVDZ
****
H 4
cc-pVDZ
****
H 5
cc-pVDZ
****
H 6
cc-pVDZ
****
O 7
aug-cc-pVDZ
****
H 8
cc-pVDZ
****
$end
--------------------------------------------------------------

             Standard Nuclear Orientation (Angstroms)
    I     Atom           X                Y                Z
 ----------------------------------------------------------------
    1      C      -0.6645000000    -0.0000000000     3.6386938941
    2      C       0.6645000000     0.0000000000     3.6386938941
    3      H      -1.1590800000    -0.0000000000     2.6763448941
    4      H       1.1590800000     0.0000000000     2.6763448941
    5      H      -1.1590800000    -0.0000000000     4.6010418941
    6      H       1.1590800000     0.0000000000     4.6010418941
    7      O       0.0000000000    -0.0000000000    -6.3615110863
    8      H       0.0000000000    -0.0000000000    -7.3270116156
 ----------------------------------------------------------------

   11    -153.4330096057      9.03E-09 Convergence criterion met
 Total energy in the final basis set = -153.43300961
  Excited state 1 (singlet, A1)                                    [converged]
  Term symbol:  2 (1) A1                                    R^2 =  2.81587e-09
  Excitation energy:                                               1.315365 eV
  Excited state 2 (singlet, A1)                                    [converged]
  Term symbol:  3 (1) A1                                    R^2 =  5.85182e-09
  Excitation energy:                                               1.631720 eV
  Excited state 3 (singlet, A1)                                    [converged]
  Term symbol:  4 (1) A1                                    R^2 =  5.51876e-09
  Excitation energy:                                               2.029847 eV
  Excited state 4 (singlet, A1)                                    [converged]
  Term symbol:  5 (1) A1                                    R^2 =  8.53025e-08
  Excitation energy:                                               5.180232 eV
  Excited state 5 (singlet, A1)                                    [converged]
  Term symbol:  6 (1) A1                                    R^2 =  6.50363e-07
  Excitation energy:                                               5.629823 eV
  Excited state 6 (singlet, A1)                                    [converged]
  Term symbol:  7 (1) A1                                    R^2 =  2.14632e-07
  Excitation energy:                                               6.020850 eV
  Excited state 7 (singlet, A1)                                    [converged]
  Term symbol:  8 (1) A1                                    R^2 =  4.47689e-06
  Excitation energy:                                               6.097278 eV
  Excited state 8 (singlet, A1)                                    [converged]
  Term symbol:  9 (1) A1                                    R^2 =  4.54799e-06
  Excitation energy:                                               6.283972 eV
  Excited state 9 (singlet, A1)                                    [converged]
  Term symbol:  10 (1) A1                                   R^2 =  3.42554e-06
  Excitation energy:                                               6.430744 eV
  Excited state 10 (singlet, A1)                                    [converged]
  Term symbol:  11 (1) A1                                   R^2 =  7.99052e-07
  Excitation energy:                                               6.702044 eV

             Orbital Energies (a.u.) and Symmetries
 --------------------------------------------------------------

 Alpha MOs, Restricted
 -- Occupied --
-20.198 -11.183 -11.181  -0.988  -0.905  -0.728  -0.606  -0.513
  1 A1    2 A1    1 B1    3 A1    4 A1    2 B1    5 A1    6 A1
 -0.461  -0.323  -0.252  -0.108  -0.108
  3 B1    1 B2    7 A1    2 B2    4 B1

 Beta MOs, Restricted
 -- Occupied --
-20.198 -11.183 -11.181  -0.988  -0.905  -0.728  -0.606  -0.513
  1 A1    2 A1    1 B1    3 A1    4 A1    2 B1    5 A1    6 A1
 -0.461  -0.323  -0.252  -0.108  -0.108
  3 B1    1 B2    7 A1    2 B2    4 B1

          Ground-State Mulliken Net Atomic Charges

     Atom                 Charge (a.u.)
  ----------------------------------------
      1 C                    -0.160376
      2 C                    -0.160376
      3 H                     0.091079
      4 H                     0.091079
      5 H                     0.069296
      6 H                     0.069296
      7 O                    -1.035724
      8 H                     0.035727
  ----------------------------------------
  Sum of atomic charges =    -1.000000

                    Cartesian Multipole Moments
 -----------------------------------------------------------------
    Charge (ESU x 10^10)
                -4.8032
    Dipole Moment (Debye)
         X       0.0000      Y      -0.0000      Z      29.1863
       Tot      29.1863
    Quadrupole Moments (Debye-Ang)
        XX     -23.0557     XY       0.0000     YY     -26.2438
        XZ       0.0000     YZ      -0.0000     ZZ    -199.3682

 Total job time:  167.29s(wall), 272.37s(cpu)
        *  Thank you very much for using Q-Chem.  Have a nice day.  *
