 Q-Chem 5.4 (devel), Q-Chem, Inc., Pleasanton, CA (2021)
 Q-Chem 5.4.1 for Intel X86 EM64T Linux

User input:
--------------------------------------------------------------
$comment
	H_Ethylene CAP-ADC(3) 10y
	Basis: C: jun-TZ+4p1d, H: TZ
$end

$molecule
-1 1
C      -0.6645000000     0.0000000000    -0.5882352941
C       0.6645000000    -0.0000001253    -0.5882352941
H      -1.1590800000    -0.9623488747    -0.5882353066
H       1.1590800000    -0.9623488747    -0.5882353066
H      -1.1590800000     0.9623488747    -0.5882353066
H       1.1590800000     0.9623488747    -0.5882353066
H       0.0000000000     0.0000000000     9.4117647059
$end

$rem
	basis gen
	method adc(2)
	scf_convergence 8
        EE_STATES [0,0,10,0]
	thresh 14
	adc_cap 1
	cap_type 2
	cap_x 1500
	cap_x_end 5000
	cap_x_step 500
	xc_grid 000250000974
	adc_print 3
	adc_davidson_conv 5
	adc_nguess_singles 100
	adc_nguess_doubles 50
	adc_davidson_maxsubspace 400
	adc_davidson_maxiter 40
	adc_davidson_thresh 14
	mem_total 95000
	threads 12
$end

$basis
C     1
S    8   1.00
   8236.0000000              0.0005310
   1235.0000000              0.0041080
    280.8000000              0.0210870
     79.2700000              0.0818530
     25.5900000              0.2348170
      8.9970000              0.4344010
      3.3190000              0.3461290
      0.3643000             -0.0089830
S    1   1.00
      0.9059000              1.0000000
S    8   1.00
   8236.0000000             -0.0001130
   1235.0000000             -0.0008780
    280.8000000             -0.0045400
     79.2700000             -0.0181330
     25.5900000             -0.0557600
      8.9970000             -0.1268950
      3.3190000             -0.1703520
      0.3643000              0.5986840
S    1   1.00
      0.1285000              1.0000000
S    1   1.00
      0.0440200              1.0000000
P    3   1.00
     18.7100000              0.0140310
      4.1330000              0.0868660
      1.2000000              0.2902160
P    1   1.00
      0.3827000              1.0000000
P    1   1.00
      0.1209000              1.0000000
P    1   1.00
      0.0356900              1.0000000
P    1   1.0
      0.0237933 1.0
P    1   1.0
      0.0158622 1.0
P    1   1.0
      0.0105748 1.0
P    1   1.0
      0.0070498 1.0
D    1   1.00
      1.0970000              1.0000000
D    1   1.00
      0.3180000              1.0000000
D    1   1.00
      0.1000000              1.0000000
D    1   1.00
      0.0500000 1.0
F    1   1.00
      0.7610000              1.0000000
****
C     2
S    8   1.00
   8236.0000000              0.0005310
   1235.0000000              0.0041080
    280.8000000              0.0210870
     79.2700000              0.0818530
     25.5900000              0.2348170
      8.9970000              0.4344010
      3.3190000              0.3461290
      0.3643000             -0.0089830
S    1   1.00
      0.9059000              1.0000000
S    8   1.00
   8236.0000000             -0.0001130
   1235.0000000             -0.0008780
    280.8000000             -0.0045400
     79.2700000             -0.0181330
     25.5900000             -0.0557600
      8.9970000             -0.1268950
      3.3190000             -0.1703520
      0.3643000              0.5986840
S    1   1.00
      0.1285000              1.0000000
S    1   1.00
      0.0440200              1.0000000
P    3   1.00
     18.7100000              0.0140310
      4.1330000              0.0868660
      1.2000000              0.2902160
P    1   1.00
      0.3827000              1.0000000
P    1   1.00
      0.1209000              1.0000000
P    1   1.00
      0.0356900              1.0000000
P    1   1.0
      0.0237933 1.0
P    1   1.0
      0.0158622 1.0
P    1   1.0
      0.0105748 1.0
P    1   1.0
      0.0070498 1.0
D    1   1.00
      1.0970000              1.0000000
D    1   1.00
      0.3180000              1.0000000
D    1   1.00
      0.1000000              1.0000000
D    1   1.00
      0.0500000 1.0
F    1   1.00
      0.7610000              1.0000000
****
H     3
cc-pVTZ
****
H     4
cc-pVTZ
****
H     5
cc-pVTZ
****
H     6
cc-pVTZ
****
H     7
aug-cc-pVTZ
****
$end
--------------------------------------------------------------

             Standard Nuclear Orientation (Angstroms)
    I     Atom           X                Y                Z
 ----------------------------------------------------------------
    1      C      -0.6645000000    -0.0000000005    -0.5882352912
    2      C       0.6645000000     0.0000000005    -0.5882352912
    3      H      -1.1590799310    -0.9623489107    -0.5882353084
    4      H       1.1590799310    -0.9623489107    -0.5882353084
    5      H      -1.1590799310     0.9623489107    -0.5882353084
    6      H       1.1590799310     0.9623489107    -0.5882353084
    7      H       0.0000000000    -0.0000000018     9.4117647088
 ----------------------------------------------------------------

   11     -78.5326250544      5.32E-09 Convergence criterion met
 Total energy in the final basis set = -78.53262505
  Excited state 1 (singlet, B1)                                    [converged]
  Term symbol:  1 (1) B1                                    R^2 =  4.61303e-08
  Excitation energy:                                              -0.075795 eV
  Excited state 2 (singlet, B1)                                    [converged]
  Term symbol:  2 (1) B1                                    R^2 =  5.42105e-08
  Excitation energy:                                               0.206028 eV
  Excited state 3 (singlet, B1)                                    [converged]
  Term symbol:  3 (1) B1                                    R^2 =  1.33110e-07
  Excitation energy:                                               0.525662 eV
  Excited state 4 (singlet, B1)                                    [converged]
  Term symbol:  4 (1) B1                                    R^2 =  1.51526e-07
  Excitation energy:                                               0.913829 eV
  Excited state 5 (singlet, B1)                                    [converged]
  Term symbol:  5 (1) B1                                    R^2 =  3.61382e-07
  Excitation energy:                                               1.484529 eV
  Excited state 6 (singlet, B1)                                    [converged]
  Term symbol:  6 (1) B1                                    R^2 =  9.98310e-07
  Excitation energy:                                               1.814360 eV
  Excited state 7 (singlet, B1)                                    [converged]
  Term symbol:  7 (1) B1                                    R^2 =  2.45081e-06
  Excitation energy:                                               2.620301 eV
  Excited state 8 (singlet, B1)                                    [converged]
  Term symbol:  8 (1) B1                                    R^2 =  8.73451e-07
  Excitation energy:                                               3.013721 eV
  Excited state 9 (singlet, B1)                                    [converged]
  Term symbol:  9 (1) B1                                    R^2 =  4.02839e-06
  Excitation energy:                                               4.168852 eV
  Excited state 10 (singlet, B1)                                    [converged]
  Term symbol:  10 (1) B1                                   R^2 =  1.34863e-07
  Excitation energy:                                               4.238284 eV
  Excitation energy:                                               0.281822 eV
  Excitation energy:                                               0.601456 eV
  Excitation energy:                                               0.319634 eV
  Excitation energy:                                               0.989623 eV
  Excitation energy:                                               0.707801 eV
  Excitation energy:                                               0.388167 eV
  Excitation energy:                                               1.560323 eV
  Excitation energy:                                               1.278501 eV
  Excitation energy:                                               0.958867 eV
  Excitation energy:                                               0.570700 eV
  Excitation energy:                                               1.890155 eV
  Excitation energy:                                               1.608332 eV
  Excitation energy:                                               1.288698 eV
  Excitation energy:                                               0.900531 eV
  Excitation energy:                                               0.329831 eV
  Excitation energy:                                               2.696095 eV
  Excitation energy:                                               2.414273 eV
  Excitation energy:                                               2.094639 eV
  Excitation energy:                                               1.706472 eV
  Excitation energy:                                               1.135772 eV
  Excitation energy:                                               0.805941 eV
  Excitation energy:                                               3.089516 eV
  Excitation energy:                                               2.807693 eV
  Excitation energy:                                               2.488059 eV
  Excitation energy:                                               2.099892 eV
  Excitation energy:                                               1.529192 eV
  Excitation energy:                                               1.199361 eV
  Excitation energy:                                               0.393421 eV
  Excitation energy:                                               4.244646 eV
  Excitation energy:                                               3.962824 eV
  Excitation energy:                                               3.643190 eV
  Excitation energy:                                               3.255023 eV
  Excitation energy:                                               2.684323 eV
  Excitation energy:                                               2.354492 eV
  Excitation energy:                                               1.548551 eV
  Excitation energy:                                               1.155130 eV
  Excitation energy:                                               4.314078 eV
  Excitation energy:                                               4.032256 eV
  Excitation energy:                                               3.712622 eV
  Excitation energy:                                               3.324455 eV
  Excitation energy:                                               2.753755 eV
  Excitation energy:                                               2.423924 eV
  Excitation energy:                                               1.617983 eV
  Excitation energy:                                               1.224562 eV
  Excitation energy:                                               0.069432 eV

             Orbital Energies (a.u.) and Symmetries
 --------------------------------------------------------------

 Alpha MOs, Restricted
 -- Occupied --
-11.175 -11.173  -0.987  -0.728  -0.608  -0.515  -0.463  -0.324
  1 A1    1 B1    2 A1    2 B1    1 B2    3 A1    1 A2    4 A1
 -0.028
  5 A1

 Beta MOs, Restricted
 -- Occupied --
-11.175 -11.173  -0.987  -0.728  -0.608  -0.515  -0.463  -0.324
  1 A1    1 B1    2 A1    2 B1    1 B2    3 A1    1 A2    4 A1
 -0.028
  5 A1

          Ground-State Mulliken Net Atomic Charges

     Atom                 Charge (a.u.)
  ----------------------------------------
      1 C                    -0.400557
      2 C                    -0.400557
      3 H                     0.156995
      4 H                     0.156994
      5 H                     0.156994
      6 H                     0.156995
      7 H                    -0.826863
  ----------------------------------------
  Sum of atomic charges =    -1.000000

                    Cartesian Multipole Moments
 -----------------------------------------------------------------
    Charge (ESU x 10^10)
                -4.8032
    Dipole Moment (Debye)
         X      -0.0000      Y       0.0000      Z     -40.6422
       Tot      40.6422
    Quadrupole Moments (Debye-Ang)
        XX     -31.6498     XY      -0.0000     YY     -27.4792
        XZ       0.0000     YZ       0.0000     ZZ    -428.3478

 Total job time:  378.19s(wall), 1938.83s(cpu)
        *  Thank you very much for using Q-Chem.  Have a nice day.  *
