 Q-Chem 5.4 (devel), Q-Chem, Inc., Pleasanton, CA (2021)
 Q-Chem 5.4.1 for Intel X86 EM64T Linux

User input:
--------------------------------------------------------------
$comment
	Ethylene CAP-EOM-CCSD
	Basis: C/7H: jun-TZ+4p1d, H: TZ
$end

$molecule
-1 1
C         0.0000000000    0.0000000000    0.8417902907
C         0.0000000000    0.0000000000   -0.4872097093
H         0.9623488518    0.0000000000    1.3363703127
H         0.9623489048    0.0000000000   -0.9817896873
H        -0.9623488518    0.0000000000    1.3363703127
H        -0.9623489048    0.0000000000   -0.9817896873
H         0.0000000000    0.0000000000   -2.8366446508
$end

$rem
	method eom-ccsd
	basis gen
        EE_STATES [0,0,0,10]
	complex_ccman 1
	xc_grid 000250000974
	scf_convergence 8
	thresh 14
	mem_total 95000
	threads 12
$end

$complex_ccman
	cap_type 2
	proj_cap 3
	cap_eta 300
	cap_x 3500
$end

$basis
C     1
S    8   1.00
   8236.0000000              0.0005310
   1235.0000000              0.0041080
    280.8000000              0.0210870
     79.2700000              0.0818530
     25.5900000              0.2348170
      8.9970000              0.4344010
      3.3190000              0.3461290
      0.3643000             -0.0089830
S    1   1.00
      0.9059000              1.0000000
S    8   1.00
   8236.0000000             -0.0001130
   1235.0000000             -0.0008780
    280.8000000             -0.0045400
     79.2700000             -0.0181330
     25.5900000             -0.0557600
      8.9970000             -0.1268950
      3.3190000             -0.1703520
      0.3643000              0.5986840
S    1   1.00
      0.1285000              1.0000000
S    1   1.00
      0.0440200              1.0000000
P    3   1.00
     18.7100000              0.0140310
      4.1330000              0.0868660
      1.2000000              0.2902160
P    1   1.00
      0.3827000              1.0000000
P    1   1.00
      0.1209000              1.0000000
P    1   1.00
      0.0356900              1.0000000
P    1   1.0
      0.0237933 1.0
P    1   1.0
      0.0158622 1.0
P    1   1.0
      0.0105748 1.0
P    1   1.0
      0.0070498 1.0
D    1   1.00
      1.0970000              1.0000000
D    1   1.00
      0.3180000              1.0000000
D    1   1.00
      0.1000000              1.0000000
D    1   1.00
      0.0500000 1.0
F    1   1.00
      0.7610000              1.0000000
****
C     2
S    8   1.00
   8236.0000000              0.0005310
   1235.0000000              0.0041080
    280.8000000              0.0210870
     79.2700000              0.0818530
     25.5900000              0.2348170
      8.9970000              0.4344010
      3.3190000              0.3461290
      0.3643000             -0.0089830
S    1   1.00
      0.9059000              1.0000000
S    8   1.00
   8236.0000000             -0.0001130
   1235.0000000             -0.0008780
    280.8000000             -0.0045400
     79.2700000             -0.0181330
     25.5900000             -0.0557600
      8.9970000             -0.1268950
      3.3190000             -0.1703520
      0.3643000              0.5986840
S    1   1.00
      0.1285000              1.0000000
S    1   1.00
      0.0440200              1.0000000
P    3   1.00
     18.7100000              0.0140310
      4.1330000              0.0868660
      1.2000000              0.2902160
P    1   1.00
      0.3827000              1.0000000
P    1   1.00
      0.1209000              1.0000000
P    1   1.00
      0.0356900              1.0000000
P    1   1.0
      0.0237933 1.0
P    1   1.0
      0.0158622 1.0
P    1   1.0
      0.0105748 1.0
P    1   1.0
      0.0070498 1.0
D    1   1.00
      1.0970000              1.0000000
D    1   1.00
      0.3180000              1.0000000
D    1   1.00
      0.1000000              1.0000000
D    1   1.00
      0.0500000 1.0
F    1   1.00
      0.7610000              1.0000000
****
H     3
cc-pVTZ
****
H     4
cc-pVTZ
****
H     5
cc-pVTZ
****
H     6
cc-pVTZ
****
H     7
aug-cc-pVTZ
****
$end
--------------------------------------------------------------

             Standard Nuclear Orientation (Angstroms)
    I     Atom           X                Y                Z
 ----------------------------------------------------------------
    1      C       0.0000000000     0.0000000000     0.8417902855
    2      C       0.0000000000     0.0000000000    -0.4872097145
    3      H       0.9623488518     0.0000000000     1.3363703075
    4      H       0.9623489048     0.0000000000    -0.9817896925
    5      H      -0.9623488518     0.0000000000     1.3363703075
    6      H      -0.9623489048     0.0000000000    -0.9817896925
    7      H       0.0000000000     0.0000000000    -2.8366446560
 ----------------------------------------------------------------

   12     -78.5270871039      9.10e-09  Convergence criterion met
 Total energy in the final basis set =      -78.5270871039
 CCSD total energy          = -78.93112095
 EOMEE transition 1/B2
 Total energy = -78.90163591 a.u.  Excitation energy = 0.8023 eV.
 EOMEE transition 2/B2
 Total energy = -78.89639954 a.u.  Excitation energy = 0.9448 eV.
 EOMEE transition 3/B2
 Total energy = -78.87865397 a.u.  Excitation energy = 1.4277 eV.
 EOMEE transition 4/B2
 Total energy = -78.87085160 a.u.  Excitation energy = 1.6400 eV.
 EOMEE transition 5/B2
 Total energy = -78.83824139 a.u.  Excitation energy = 2.5274 eV.
 EOMEE transition 6/B2
 Total energy = -78.83725650 a.u.  Excitation energy = 2.5542 eV.
 EOMEE transition 7/B2
 Total energy = -78.80727010 a.u.  Excitation energy = 3.3702 eV.
 EOMEE transition 8/B2
 Total energy = -78.76551898 a.u.  Excitation energy = 4.5063 eV.
 EOMEE transition 9/B2
 Total energy = -78.74108913 a.u.  Excitation energy = 5.1710 eV.
 EOMEE transition 10/B2
 Total energy = -78.71820218 a.u.  Excitation energy = 5.7938 eV.
 Excited state properties for  EOMEE-CCSD transition 1/B2
 Excited state properties for  EOMEE-CCSD transition 2/B2
 Excited state properties for  EOMEE-CCSD transition 3/B2
 Excited state properties for  EOMEE-CCSD transition 4/B2
 Excited state properties for  EOMEE-CCSD transition 5/B2
 Excited state properties for  EOMEE-CCSD transition 6/B2
 Excited state properties for  EOMEE-CCSD transition 7/B2
 Excited state properties for  EOMEE-CCSD transition 8/B2
 Excited state properties for  EOMEE-CCSD transition 9/B2
 Excited state properties for  EOMEE-CCSD transition 10/B2

             Orbital Energies (a.u.) and Symmetries
 --------------------------------------------------------------

 Alpha MOs, Restricted
 -- Occupied --
-11.070 -11.065  -0.883  -0.623  -0.505  -0.410  -0.357  -0.223
  1 A1    2 A1    3 A1    4 A1    1 B1    5 A1    2 B1    1 B2
 -0.040
  6 A1

 Beta MOs, Restricted
 -- Occupied --
-11.070 -11.065  -0.883  -0.623  -0.505  -0.410  -0.357  -0.223
  1 A1    2 A1    3 A1    4 A1    1 B1    5 A1    2 B1    1 B2
 -0.040
  6 A1

          Ground-State Mulliken Net Atomic Charges

     Atom                 Charge (a.u.)
  ----------------------------------------
      1 C                    -1.196493
      2 C                     0.201093
      3 H                     0.135325
      4 H                     0.124176
      5 H                     0.135325
      6 H                     0.124176
      7 H                    -0.523603
  ----------------------------------------
  Sum of atomic charges =    -1.000000

                    Cartesian Multipole Moments
 -----------------------------------------------------------------
    Charge (ESU x 10^10)
                -4.8032
    Dipole Moment (Debye)
         X      -0.0000      Y       0.0000      Z      12.9717
       Tot      12.9717
    Quadrupole Moments (Debye-Ang)
        XX     -20.4346     XY      -0.0000     YY     -24.7443
        XZ      -0.0000     YZ      -0.0000     ZZ     -66.0752

 Total job time:  454.75s(wall), 3049.65s(cpu)
        *  Thank you very much for using Q-Chem.  Have a nice day.  *
