 Q-Chem 5.4 (devel), Q-Chem, Inc., Pleasanton, CA (2021)
 Q-Chem 5.4.1 for Intel X86 EM64T Linux

User input:
--------------------------------------------------------------
$comment
	OH_Ethylene CAP-ADC(2) opt
	Basis: C: aDZ+4p1d, H: DZ, O: aDZ
$end

$molecule
-1 1
C        -0.6645000000    0.0000000000    1.1619088658
C         0.6645000000    0.0000000000    1.1619088658
H        -1.1590800000    0.0000000000    0.1995598658
H         1.1590800000    0.0000000000    0.1995598658
H        -1.1590800000    0.0000000000    2.1242568658
H         1.1590800000    0.0000000000    2.1242568658
O         0.0000000000    0.0000000000   -8.84
H         0.0000000000    0.0000000000   -9.81
$end

$rem
	basis gen
	method adc(2)
        EE_STATES [0,0,0,30]
	scf_convergence 8
	thresh 14
	adc_cap 1
	cap_type 2
	cap_x 1500
	cap_x_end 5000
	cap_x_step 500
	xc_grid 000250000974
	adc_print 3
	adc_davidson_conv 5
	adc_nguess_singles 100
	adc_nguess_doubles 50
	adc_davidson_maxsubspace 400
	adc_davidson_maxiter 40
	adc_davidson_thresh 14
	mem_total 95000
	threads 12
$end

$basis
C     1
S   9   1.00
      6.665000D+03           6.920000D-04
      1.000000D+03           5.329000D-03
      2.280000D+02           2.707700D-02
      6.471000D+01           1.017180D-01
      2.106000D+01           2.747400D-01
      7.495000D+00           4.485640D-01
      2.797000D+00           2.850740D-01
      5.215000D-01           1.520400D-02
      1.596000D-01          -3.191000D-03
S   9   1.00
      6.665000D+03          -1.460000D-04
      1.000000D+03          -1.154000D-03
      2.280000D+02          -5.725000D-03
      6.471000D+01          -2.331200D-02
      2.106000D+01          -6.395500D-02
      7.495000D+00          -1.499810D-01
      2.797000D+00          -1.272620D-01
      5.215000D-01           5.445290D-01
      1.596000D-01           5.804960D-01
S   1   1.00
      1.596000D-01           1.000000D+00
S   1   1.00
      0.0469000              1.0000000
P   4   1.00
      9.439000D+00           3.810900D-02
      2.002000D+00           2.094800D-01
      5.456000D-01           5.085570D-01
      1.517000D-01           4.688420D-01
P   1   1.00
      1.517000D-01           1.000000D+00
P   1   1.00
      0.0404100              1.0000000
P    1  1.00
     0.0269400   1.0
P    1  1.00
     0.0179600   1.0
P    1  1.00
     0.0119733   1.0
P    1  1.00
     0.0079822   1.0
D   1   1.00
      5.500000D-01           1.0000000
D   1   1.00
      0.1510000              1.0000000
D    1  1.00
     0.0755000   1.0
****
C     2
S   9   1.00
      6.665000D+03           6.920000D-04
      1.000000D+03           5.329000D-03
      2.280000D+02           2.707700D-02
      6.471000D+01           1.017180D-01
      2.106000D+01           2.747400D-01
      7.495000D+00           4.485640D-01
      2.797000D+00           2.850740D-01
      5.215000D-01           1.520400D-02
      1.596000D-01          -3.191000D-03
S   9   1.00
      6.665000D+03          -1.460000D-04
      1.000000D+03          -1.154000D-03
      2.280000D+02          -5.725000D-03
      6.471000D+01          -2.331200D-02
      2.106000D+01          -6.395500D-02
      7.495000D+00          -1.499810D-01
      2.797000D+00          -1.272620D-01
      5.215000D-01           5.445290D-01
      1.596000D-01           5.804960D-01
S   1   1.00
      1.596000D-01           1.000000D+00
S   1   1.00
      0.0469000              1.0000000
P   4   1.00
      9.439000D+00           3.810900D-02
      2.002000D+00           2.094800D-01
      5.456000D-01           5.085570D-01
      1.517000D-01           4.688420D-01
P   1   1.00
      1.517000D-01           1.000000D+00
P   1   1.00
      0.0404100              1.0000000
P    1  1.00
     0.0269400   1.0
P    1  1.00
     0.0179600   1.0
P    1  1.00
     0.0119733   1.0
P    1  1.00
     0.0079822   1.0
D   1   1.00
      5.500000D-01           1.0000000
D   1   1.00
      0.1510000              1.0000000
D    1  1.00
     0.0755000   1.0
****
H     3
S   4   1.00
      1.301000D+01           1.968500D-02
      1.962000D+00           1.379770D-01
      4.446000D-01           4.781480D-01
      1.220000D-01           5.012400D-01
S   1   1.00
      1.220000D-01           1.000000D+00
P   1   1.00
      7.270000D-01           1.0000000
****
H     4
S   4   1.00
      1.301000D+01           1.968500D-02
      1.962000D+00           1.379770D-01
      4.446000D-01           4.781480D-01
      1.220000D-01           5.012400D-01
S   1   1.00
      1.220000D-01           1.000000D+00
P   1   1.00
      7.270000D-01           1.0000000
****
H     5
S   4   1.00
      1.301000D+01           1.968500D-02
      1.962000D+00           1.379770D-01
      4.446000D-01           4.781480D-01
      1.220000D-01           5.012400D-01
S   1   1.00
      1.220000D-01           1.000000D+00
P   1   1.00
      7.270000D-01           1.0000000
****
H     6
S   4   1.00
      1.301000D+01           1.968500D-02
      1.962000D+00           1.379770D-01
      4.446000D-01           4.781480D-01
      1.220000D-01           5.012400D-01
S   1   1.00
      1.220000D-01           1.000000D+00
P   1   1.00
      7.270000D-01           1.0000000
****
O     7
S    9   1.00
      1.172000D+04           7.100000D-04
      1.759000D+03           5.470000D-03
      4.008000D+02           2.783700D-02
      1.137000D+02           1.048000D-01
      3.703000D+01           2.830620D-01
      1.327000D+01           4.487190D-01
      5.025000D+00           2.709520D-01
      1.013000D+00           1.545800D-02
      3.023000D-01          -2.585000D-03
S    9   1.00
      1.172000D+04          -1.600000D-04
      1.759000D+03          -1.263000D-03
      4.008000D+02          -6.267000D-03
      1.137000D+02          -2.571600D-02
      3.703000D+01          -7.092400D-02
      1.327000D+01          -1.654110D-01
      5.025000D+00          -1.169550D-01
      1.013000D+00           5.573680D-01
      3.023000D-01           5.727590D-01
S    1   1.00
      3.023000D-01           1.000000D+00
S    1   1.00
      0.0789600              1.0000000
P    4   1.00
      1.770000D+01           4.301800D-02
      3.854000D+00           2.289130D-01
      1.046000D+00           5.087280D-01
      2.753000D-01           4.605310D-01
P    1   1.00
      2.753000D-01           1.000000D+00
P    1   1.00
      0.0685600              1.0000000
D    1   1.00
      1.185000D+00           1.0000000
D    1   1.00
      0.3320000              1.0000000
****
H     8
S   4   1.00
      1.301000D+01           1.968500D-02
      1.962000D+00           1.379770D-01
      4.446000D-01           4.781480D-01
      1.220000D-01           5.012400D-01
S   1   1.00
      1.220000D-01           1.000000D+00
P   1   1.00
      7.270000D-01           1.0000000
****
$end
--------------------------------------------------------------

             Standard Nuclear Orientation (Angstroms)
    I     Atom           X                Y                Z
 ----------------------------------------------------------------
    1      C      -0.6645000000     0.0000000000     3.6394872717
    2      C       0.6645000000    -0.0000000000     3.6394872717
    3      H      -1.1590800000     0.0000000000     2.6771382717
    4      H       1.1590800000    -0.0000000000     2.6771382717
    5      H      -1.1590800000     0.0000000000     4.6018352717
    6      H       1.1590800000    -0.0000000000     4.6018352717
    7      O      -0.0000000000     0.0000000000    -6.3624215941
    8      H      -0.0000000000     0.0000000000    -7.3324215941
 ----------------------------------------------------------------

   15    -153.4339620179      1.05E-09 Convergence criterion met
 Total energy in the final basis set = -153.43396202
  Term symbol:  1 (1) B2                                    R^2 =  2.59700e-15
  Excitation energy:                                               0.323986 eV
  Term symbol:  2 (1) B2                                    R^2 =  2.05343e-15
  Excitation energy:                                               0.418599 eV
  Term symbol:  3 (1) B2                                    R^2 =  5.45089e-15
  Excitation energy:                                               0.532331 eV
  Term symbol:  4 (1) B2                                    R^2 =  4.74692e-15
  Excitation energy:                                               1.003616 eV
  Term symbol:  5 (1) B2                                    R^2 =  2.26867e-15
  Excitation energy:                                               1.222862 eV
  Term symbol:  6 (1) B2                                    R^2 =  6.47599e-15
  Excitation energy:                                               1.229995 eV
  Term symbol:  7 (1) B2                                    R^2 =  1.28335e-14
  Excitation energy:                                               1.897790 eV
  Term symbol:  8 (1) B2                                    R^2 =  1.10873e-14
  Excitation energy:                                               2.222421 eV
  Term symbol:  9 (1) B2                                    R^2 =  1.17785e-14
  Excitation energy:                                               2.233561 eV
  Excited state 10 (singlet, B2)                                   [converged]
  Term symbol:  10 (1) B2                                   R^2 =  1.50626e-14
  Excitation energy:                                               2.878523 eV
  Excited state 11 (singlet, B2)                                   [converged]
  Term symbol:  11 (1) B2                                   R^2 =  4.63422e-14
  Excitation energy:                                               3.189563 eV
  Excited state 12 (singlet, B2)                                   [converged]
  Term symbol:  12 (1) B2                                   R^2 =  3.43133e-13
  Excitation energy:                                               4.282718 eV
  Excited state 13 (singlet, B2)                                   [converged]
  Term symbol:  13 (1) B2                                   R^2 =  3.87719e-13
  Excitation energy:                                               4.473345 eV
  Excited state 14 (singlet, B2)                                   [converged]
  Term symbol:  14 (1) B2                                   R^2 =  6.99977e-13
  Excitation energy:                                               4.479376 eV
  Excited state 15 (singlet, B2)                                   [converged]
  Term symbol:  15 (1) B2                                   R^2 =  4.97910e-13
  Excitation energy:                                               4.863727 eV
  Excited state 16 (singlet, B2)                                   [converged]
  Term symbol:  16 (1) B2                                   R^2 =  1.25160e-12
  Excitation energy:                                               5.089579 eV
  Excited state 17 (singlet, B2)                                   [converged]
  Excitation energy:                                               3.458483 eV
  Excitation energy:                                               2.204387 eV
  Excitation energy:                                               2.075238 eV
  Excitation energy:                                               1.960521 eV
  Excitation energy:                                               1.434459 eV
  Excitation energy:                                               1.200786 eV
  Excitation energy:                                               0.765247 eV
  Excitation energy:                                               0.668211 eV
  Excitation energy:                                               0.228988 eV
  Excitation energy:                                               0.085432 eV
  Excitation energy:                                               0.000087 eV
  Excitation energy:                                               8.431412 eV
  Excitation energy:                                               8.336799 eV
  Excitation energy:                                               8.223067 eV
  Excitation energy:                                               7.751782 eV
  Excitation energy:                                               7.532536 eV
  Excitation energy:                                               7.525403 eV
  Excitation energy:                                               6.857608 eV
  Excitation energy:                                               6.532977 eV
  Excitation energy:                                               6.521837 eV
  Excitation energy:                                               5.876875 eV
  Excitation energy:                                               5.565835 eV
  Excitation energy:                                               4.472680 eV
  Excitation energy:                                               4.282053 eV
  Excitation energy:                                               4.276022 eV
  Excitation energy:                                               3.891671 eV
  Excitation energy:                                               3.665819 eV
  Excitation energy:                                               3.541274 eV
  Excitation energy:                                               3.490635 eV
  Excitation energy:                                               2.236539 eV
  Excitation energy:                                               2.107390 eV
  Excitation energy:                                               1.992673 eV
  Excitation energy:                                               1.466611 eV
  Excitation energy:                                               1.232938 eV
  Excitation energy:                                               0.797399 eV
  Excitation energy:                                               0.700363 eV
  Excitation energy:                                               0.261140 eV
  Excitation energy:                                               0.117584 eV
  Excitation energy:                                               0.032239 eV
  Excitation energy:                                               0.032152 eV

             Orbital Energies (a.u.) and Symmetries
 --------------------------------------------------------------

 Alpha MOs, Restricted
 -- Occupied --
-20.199 -11.183 -11.181  -0.988  -0.904  -0.728  -0.606  -0.513
  1 A1    2 A1    1 B1    3 A1    4 A1    2 B1    5 A1    6 A1
 -0.461  -0.323  -0.251  -0.109  -0.108
  3 B1    1 B2    7 A1    2 B2    4 B1

 Beta MOs, Restricted
 -- Occupied --
-20.199 -11.183 -11.181  -0.988  -0.904  -0.728  -0.606  -0.513
  1 A1    2 A1    1 B1    3 A1    4 A1    2 B1    5 A1    6 A1
 -0.461  -0.323  -0.251  -0.109  -0.108
  3 B1    1 B2    7 A1    2 B2    4 B1

          Ground-State Mulliken Net Atomic Charges

     Atom                 Charge (a.u.)
  ----------------------------------------
      1 C                    -0.082205
      2 C                    -0.082205
      3 H                     0.050692
      4 H                     0.050692
      5 H                     0.031480
      6 H                     0.031480
      7 O                    -1.037576
      8 H                     0.037642
  ----------------------------------------
  Sum of atomic charges =    -1.000000

                    Cartesian Multipole Moments
 -----------------------------------------------------------------
    Charge (ESU x 10^10)
                -4.8032
    Dipole Moment (Debye)
         X       0.0000      Y      -0.0000      Z      29.1707
       Tot      29.1707
    Quadrupole Moments (Debye-Ang)
        XX     -23.0619     XY      -0.0000     YY     -26.2826
        XZ       0.0000     YZ      -0.0000     ZZ    -199.7370

 Total job time:  1195.43s(wall), 6957.42s(cpu)
        *  Thank you very much for using Q-Chem.  Have a nice day.  *
