 Q-Chem 5.4 (devel), Q-Chem, Inc., Pleasanton, CA (2021)
 Q-Chem 5.4.1 for Intel X86 EM64T Linux

User input:
--------------------------------------------------------------
#ethylene geometry from CRC Handbook 102nd Edition
$molecule
   0 1
C         0.6235257508   -1.1565321456    0.0000000000
C        -0.6235257508   -1.1565321456    0.0000000000
C        -1.5818166948    0.0000000000    0.0000000000
C        -0.6235257508    1.1565321456    0.0000000000
C         0.6235257508    1.1565321456    0.0000000000
C         1.5818166948    0.0000000000    0.0000000000
O         2.7810421212    0.0000000000    0.0000000000
O        -2.7810421212    0.0000000000    0.0000000000
$end

$rem
        basis cc-pVTZ
        method adc(3)
        EA_STATES [0,0,0,0,0,0,0,3]
	scf_convergence 8
        thresh 14
        xc_grid 000250000974
        adc_print 3
        adc_davidson_conv 5
        adc_nguess_singles 100
        adc_nguess_doubles 50
        adc_davidson_maxsubspace 400
        adc_davidson_maxiter 40
        adc_davidson_thresh 14
        mem_total 95000
        threads 12
$end

--------------------------------------------------------------

             Standard Nuclear Orientation (Angstroms)
    I     Atom           X                Y                Z
 ----------------------------------------------------------------
    1      C       0.6235257508    -1.1565321456     0.0000000000
    2      C      -0.6235257508    -1.1565321456     0.0000000000
    3      C      -1.5818166948    -0.0000000000     0.0000000000
    4      C      -0.6235257508     1.1565321456    -0.0000000000
    5      C       0.6235257508     1.1565321456    -0.0000000000
    6      C       1.5818166948     0.0000000000    -0.0000000000
    7      O       2.7810421212     0.0000000000    -0.0000000000
    8      O      -2.7810421212    -0.0000000000     0.0000000000
 ----------------------------------------------------------------

   13    -376.7236980195      3.43E-09 Convergence criterion met
 Total energy in the final basis set = -376.72369802
  Term symbol:  1 (2) B3u                                   R^2 =  1.68820e-08
  Term symbol:  2 (2) B3u                                   R^2 =  1.93904e-07
  Term symbol:  3 (2) B3u                                   R^2 =  5.84836e-06

             Orbital Energies (a.u.) and Symmetries
 --------------------------------------------------------------

 Alpha MOs, Restricted
 -- Occupied --
-20.629 -20.629 -11.448 -11.448 -11.319 -11.319 -11.316 -11.316
  1 Ag    1 B3u   2 Ag    2 B3u   1 B2u   3 Ag    1 B1g   3 B3u
 -1.468  -1.466  -1.200  -1.066  -1.002  -0.858  -0.811  -0.748
  4 Ag    4 B3u   5 Ag    2 B2u   5 B3u   6 Ag    2 B1g   3 B2u
 -0.722  -0.713  -0.640  -0.604  -0.534  -0.503  -0.492  -0.467
  6 B3u   7 Ag    1 B1u   1 B2g   3 B1g   4 B2u   8 Ag    2 B1u
 -0.441  -0.401
  1 B3g   5 B2u

 Beta MOs, Restricted
 -- Occupied --
-20.629 -20.629 -11.448 -11.448 -11.319 -11.319 -11.316 -11.316
  1 Ag    1 B3u   2 Ag    2 B3u   1 B2u   3 Ag    1 B1g   3 B3u
 -1.468  -1.466  -1.200  -1.066  -1.002  -0.858  -0.811  -0.748
  4 Ag    4 B3u   5 Ag    2 B2u   5 B3u   6 Ag    2 B1g   3 B2u
 -0.722  -0.713  -0.640  -0.604  -0.534  -0.503  -0.492  -0.467
  6 B3u   7 Ag    1 B1u   1 B2g   3 B1g   4 B2u   8 Ag    2 B1u
 -0.441  -0.401
  1 B3g   5 B2u

          Ground-State Mulliken Net Atomic Charges

     Atom                 Charge (a.u.)
  ----------------------------------------
      1 C                    -0.059049
      2 C                    -0.059049
      3 C                     0.364807
      4 C                    -0.059049
      5 C                    -0.059049
      6 C                     0.364807
      7 O                    -0.246708
      8 O                    -0.246708
  ----------------------------------------
  Sum of atomic charges =     0.000000

                    Cartesian Multipole Moments
 -----------------------------------------------------------------
    Charge (ESU x 10^10)
                -0.0000
    Dipole Moment (Debye)
         X       0.0000      Y      -0.0000      Z       0.0000
       Tot       0.0000
    Quadrupole Moments (Debye-Ang)
        XX     -56.8085     XY      -0.0000     YY     -46.2801
        XZ       0.0000     YZ       0.0000     ZZ     -42.6663

 Total job time:  227.37s(wall), 1364.58s(cpu)
        *  Thank you very much for using Q-Chem.  Have a nice day.  *
