 Q-Chem 5.4 (devel), Q-Chem, Inc., Pleasanton, CA (2021)
 Q-Chem 5.4.1 for Intel X86 EM64T Linux

User input:
--------------------------------------------------------------
$molecule
0 1
C       0.6706584454    -1.2797490689    -0.0000000000
C      -0.6706584454    -1.2797490689     0.0000000000
C      -1.4142769845    -0.0000000016    -0.0000000000
C      -0.6706584454     1.2797490689     0.0000000000
C       0.6706584454     1.2797490689     0.0000000000
C       1.4142769845     0.0000000016     0.0000000000
O       2.6337801434     0.0000000000     0.0000000000
O      -2.6337801434     0.0000000307    -0.0000000000
$end

$rem
   BASIS cc-pVTZ
   JOBTYPE opt
   METHOD MP2
   SCF_CONVERGENCE  =  8
   threads 10
$end
--------------------------------------------------------------

   13    -376.6096380907      4.02e-09  Convergence criterion met
 Total energy in the final basis set =     -376.6096380907
        MP2         total energy =                  -378.05179494 au
   11    -376.6734046227      4.01e-09  Convergence criterion met
 Total energy in the final basis set =     -376.6734046227
        MP2         total energy =                  -378.08908003 au
   11    -376.7171508342      4.21e-09  Convergence criterion met
 Total energy in the final basis set =     -376.7171508342
        MP2         total energy =                  -378.10726009 au
   11    -376.7226556500      1.95e-09  Convergence criterion met
 Total energy in the final basis set =     -376.7226556500
        MP2         total energy =                  -378.10906168 au
    9    -376.7237714564      7.26e-09  Convergence criterion met
 Total energy in the final basis set =     -376.7237714564
        MP2         total energy =                  -378.10918379 au
    8    -376.7235617841      9.57e-09  Convergence criterion met
 Total energy in the final basis set =     -376.7235617841
        MP2         total energy =                  -378.10919061 au

             Standard Nuclear Orientation (Angstroms)
    I     Atom           X                Y                Z
 ----------------------------------------------------------------
    1      C       0.6235257508    -1.1565321456     0.0000000000
    2      C      -0.6235257508    -1.1565321456     0.0000000000
    3      C      -1.5818166948     0.0000000000     0.0000000000
    4      C      -0.6235257508     1.1565321456     0.0000000000
    5      C       0.6235257508     1.1565321456     0.0000000000
    6      C       1.5818166948     0.0000000000     0.0000000000
    7      O       2.7810421212     0.0000000000     0.0000000000
    8      O      -2.7810421212     0.0000000000     0.0000000000
 ----------------------------------------------------------------

    7    -376.7236980208      2.76e-09  Convergence criterion met
 Total energy in the final basis set =     -376.7236980208
        MP2         total energy =                  -378.10919075 au
 Final energy is   -378.109190754306
 **  OPTIMIZATION CONVERGED  **

             Orbital Energies (a.u.) and Symmetries
 --------------------------------------------------------------

 Alpha MOs, Restricted
 -- Occupied --
-20.629 -20.629 -11.448 -11.448 -11.319 -11.319 -11.316 -11.316
  1 Ag    1 B3u   2 Ag    2 B3u   1 B2u   3 Ag    1 B1g   3 B3u
 -1.468  -1.466  -1.200  -1.066  -1.002  -0.858  -0.811  -0.748
  4 Ag    4 B3u   5 Ag    2 B2u   5 B3u   6 Ag    2 B1g   3 B2u
 -0.722  -0.713  -0.640  -0.604  -0.534  -0.503  -0.492  -0.467
  6 B3u   7 Ag    1 B1u   1 B2g   3 B1g   4 B2u   8 Ag    2 B1u
 -0.441  -0.401
  1 B3g   5 B2u

 Beta MOs, Restricted
 -- Occupied --
-20.629 -20.629 -11.448 -11.448 -11.319 -11.319 -11.316 -11.316
  1 Ag    1 B3u   2 Ag    2 B3u   1 B2u   3 Ag    1 B1g   3 B3u
 -1.468  -1.466  -1.200  -1.066  -1.002  -0.858  -0.811  -0.748
  4 Ag    4 B3u   5 Ag    2 B2u   5 B3u   6 Ag    2 B1g   3 B2u
 -0.722  -0.713  -0.640  -0.604  -0.534  -0.503  -0.492  -0.467
  6 B3u   7 Ag    1 B1u   1 B2g   3 B1g   4 B2u   8 Ag    2 B1u
 -0.441  -0.401
  1 B3g   5 B2u

          Ground-State Mulliken Net Atomic Charges

     Atom                 Charge (a.u.)
  ----------------------------------------
      1 C                    -0.038713
      2 C                    -0.038713
      3 C                     0.219241
      4 C                    -0.038713
      5 C                    -0.038713
      6 C                     0.219241
      7 O                    -0.141816
      8 O                    -0.141816
  ----------------------------------------
  Sum of atomic charges =     0.000000

                    Cartesian Multipole Moments
 -----------------------------------------------------------------
    Charge (ESU x 10^10)
                 0.0000
    Dipole Moment (Debye)
         X      -0.0000      Y       0.0000      Z       0.0000
       Tot       0.0000
    Quadrupole Moments (Debye-Ang)
        XX     -54.3518     XY      -0.0000     YY     -45.0296
        XZ       0.0000     YZ      -0.0000     ZZ     -41.9426

 Total job time:  1142.24s(wall), 5403.20s(cpu)
        *  Thank you very much for using Q-Chem.  Have a nice day.  *
