 Q-Chem 5.4 (devel), Q-Chem, Inc., Pleasanton, CA (2021)
 Q-Chem 5.4.1 for Intel X86 EM64T Linux

User input:
--------------------------------------------------------------
#ethylene geometry from CRC Handbook 102nd Edition
$molecule
   0 1
C         0.6235257508   -1.1565321456    0.0000000000
C        -0.6235257508   -1.1565321456    0.0000000000
C        -1.5818166948    0.0000000000    0.0000000000
C        -0.6235257508    1.1565321456    0.0000000000
C         0.6235257508    1.1565321456    0.0000000000
C         1.5818166948    0.0000000000    0.0000000000
O         2.7810421212    0.0000000000    0.0000000000
O        -2.7810421212    0.0000000000    0.0000000000
$end

$rem
   METHOD mp2
   BASIS sto-3g
$end

--------------------------------------------------------------

             Standard Nuclear Orientation (Angstroms)
    I     Atom           X                Y                Z
 ----------------------------------------------------------------
    1      C       0.6235257508    -1.1565321456     0.0000000000
    2      C      -0.6235257508    -1.1565321456     0.0000000000
    3      C      -1.5818166948    -0.0000000000     0.0000000000
    4      C      -0.6235257508     1.1565321456    -0.0000000000
    5      C       0.6235257508     1.1565321456    -0.0000000000
    6      C       1.5818166948     0.0000000000    -0.0000000000
    7      O       2.7810421212     0.0000000000    -0.0000000000
    8      O      -2.7810421212    -0.0000000000     0.0000000000
 ----------------------------------------------------------------

    9    -371.6926240366      1.49e-06  Convergence criterion met
 Total energy in the final basis set =     -371.6926240366
        MP2         total energy =                  -372.28450784 au

             Orbital Energies (a.u.) and Symmetries
 --------------------------------------------------------------

 Alpha MOs, Restricted
 -- Occupied --
-20.362 -20.362 -11.221 -11.221 -11.030 -11.030 -11.028 -11.028
  1 B3u   1 Ag    2 B3u   2 Ag    1 B2u   3 Ag    1 B1g   3 B3u
 -1.394  -1.392  -1.094  -0.956  -0.900  -0.748  -0.715  -0.650
  4 Ag    4 B3u   5 Ag    2 B2u   5 B3u   6 Ag    2 B1g   3 B2u
 -0.599  -0.592  -0.557  -0.511  -0.420  -0.380  -0.373  -0.346
  6 B3u   7 Ag    1 B1u   1 B2g   3 B1g   4 B2u   8 Ag    1 B3g
 -0.341  -0.294
  2 B1u   5 B2u

 Beta MOs, Restricted
 -- Occupied --
-20.362 -20.362 -11.221 -11.221 -11.030 -11.030 -11.028 -11.028
  1 B3u   1 Ag    2 B3u   2 Ag    1 B2u   3 Ag    1 B1g   3 B3u
 -1.394  -1.392  -1.094  -0.956  -0.900  -0.748  -0.715  -0.650
  4 Ag    4 B3u   5 Ag    2 B2u   5 B3u   6 Ag    2 B1g   3 B2u
 -0.599  -0.592  -0.557  -0.511  -0.420  -0.380  -0.373  -0.346
  6 B3u   7 Ag    1 B1u   1 B2g   3 B1g   4 B2u   8 Ag    1 B3g
 -0.341  -0.294
  2 B1u   5 B2u

          Ground-State Mulliken Net Atomic Charges

     Atom                 Charge (a.u.)
  ----------------------------------------
      1 C                    -0.044493
      2 C                    -0.044493
      3 C                     0.256805
      4 C                    -0.044493
      5 C                    -0.044493
      6 C                     0.256805
      7 O                    -0.167820
      8 O                    -0.167820
  ----------------------------------------
  Sum of atomic charges =     0.000000

                    Cartesian Multipole Moments
 -----------------------------------------------------------------
    Charge (ESU x 10^10)
                 0.0000
    Dipole Moment (Debye)
         X      -0.0000      Y       0.0000      Z       0.0000
       Tot       0.0000
    Quadrupole Moments (Debye-Ang)
        XX     -47.5258     XY       0.0000     YY     -39.6580
        XZ      -0.0000     YZ       0.0000     ZZ     -37.2078

 Total job time:  0.36s(wall), 0.32s(cpu)
        *  Thank you very much for using Q-Chem.  Have a nice day.  *
