 Q-Chem 5.4 (devel), Q-Chem, Inc., Pleasanton, CA (2021)
 Q-Chem 5.4.1 for Intel X86 EM64T Linux

User input:
--------------------------------------------------------------
$molecule
-1 1
C        -0.6645000000    0.0000000000   -0.2082049804
C         0.6645000000    0.0000000000   -0.2082049804
H        -1.1590800000    0.0000000000    0.7541440196
H         1.1590800000    0.0000000000    0.7541440196
H        -1.1590800000    0.0000000000   -1.1705529804
H         1.1590800000    0.0000000000   -1.1705529804
H         0.0000000000    0.0000000000    3.0139349415
$end

$rem
   METHOD adc(2)
   BASIS gen
   PURECART 11
   EE_STATES [0,10,0,0]
   scf_convergence 8
   ADC_DAVIDSON_MAXITER 120
   ADC_DAVIDSON_MAXSUBSPACE 200
   adc_nguess_singles 100
   THRESH 14
   S2THRESH 14
   adc_davidson_conv 5
   adc_davidson_thresh 14
   THREADS 10
   MEM_TOTAL 95000
   STATE_ANALYSIS TRUE
$end
$basis
C 1
S   9   1.00
      6.665000D+03           6.920000D-04
      1.000000D+03           5.329000D-03
      2.280000D+02           2.707700D-02
      6.471000D+01           1.017180D-01
      2.106000D+01           2.747400D-01
      7.495000D+00           4.485640D-01
      2.797000D+00           2.850740D-01
      5.215000D-01           1.520400D-02
      1.596000D-01          -3.191000D-03
S   9   1.00
      6.665000D+03          -1.460000D-04
      1.000000D+03          -1.154000D-03
      2.280000D+02          -5.725000D-03
      6.471000D+01          -2.331200D-02
      2.106000D+01          -6.395500D-02
      7.495000D+00          -1.499810D-01
      2.797000D+00          -1.272620D-01
      5.215000D-01           5.445290D-01
      1.596000D-01           5.804960D-01
S   1   1.00
      1.596000D-01           1.000000D+00
S   1   1.00
      0.0469000              1.0000000
P   4   1.00
      9.439000D+00           3.810900D-02
      2.002000D+00           2.094800D-01
      5.456000D-01           5.085570D-01
      1.517000D-01           4.688420D-01
P   1   1.00
      1.517000D-01           1.000000D+00
P   1   1.00
      0.0387678      1.0000000
P   1   1.00
      0.0193839      1.0000000
D   1   1.00
      5.500000D-01           1.0000000
****
C 2
S   9   1.00
      6.665000D+03           6.920000D-04
      1.000000D+03           5.329000D-03
      2.280000D+02           2.707700D-02
      6.471000D+01           1.017180D-01
      2.106000D+01           2.747400D-01
      7.495000D+00           4.485640D-01
      2.797000D+00           2.850740D-01
      5.215000D-01           1.520400D-02
      1.596000D-01          -3.191000D-03
S   9   1.00
      6.665000D+03          -1.460000D-04
      1.000000D+03          -1.154000D-03
      2.280000D+02          -5.725000D-03
      6.471000D+01          -2.331200D-02
      2.106000D+01          -6.395500D-02
      7.495000D+00          -1.499810D-01
      2.797000D+00          -1.272620D-01
      5.215000D-01           5.445290D-01
      1.596000D-01           5.804960D-01
S   1   1.00
      1.596000D-01           1.000000D+00
S   1   1.00
      0.0469000              1.0000000
P   4   1.00
      9.439000D+00           3.810900D-02
      2.002000D+00           2.094800D-01
      5.456000D-01           5.085570D-01
      1.517000D-01           4.688420D-01
P   1   1.00
      1.517000D-01           1.000000D+00
P   1   1.00
      0.0387678      1.0000000
P   1   1.00
      0.0193839      1.0000000
D   1   1.00
      5.500000D-01           1.0000000
****
H 3
cc-pVDZ
****
H 4
cc-pVDZ
****
H 5
cc-pVDZ
****
H 6
cc-pVDZ
****
H 7
aug-cc-pVDZ
****
$end
--------------------------------------------------------------

             Standard Nuclear Orientation (Angstroms)
    I     Atom           X                Y                Z
 ----------------------------------------------------------------
    1      C      -0.6645000000    -0.0000000000    -0.1895377601
    2      C       0.6645000000     0.0000000000    -0.1895377601
    3      H      -1.1590800000    -0.0000000000     0.7728112399
    4      H       1.1590800000     0.0000000000     0.7728112399
    5      H      -1.1590800000    -0.0000000000    -1.1518857601
    6      H       1.1590800000     0.0000000000    -1.1518857601
    7      H      -0.0000000000     0.0000000000     3.0326021618
 ----------------------------------------------------------------

   11     -78.5157440581      9.17E-09 Convergence criterion met
 Total energy in the final basis set = -78.51574406
  Excited state 1 (singlet, A2)                                    [converged]
  Term symbol:  1 (1) A2                                    R^2 =  1.27727e-09
  Excitation energy:                                               1.834252 eV
  Excited state 2 (singlet, A2)                                    [converged]
  Term symbol:  2 (1) A2                                    R^2 =  7.52053e-09
  Excitation energy:                                               3.198724 eV
  Excited state 3 (singlet, A2)                                    [converged]
  Term symbol:  3 (1) A2                                    R^2 =  1.25869e-08
  Excitation energy:                                               6.274508 eV
  Excited state 4 (singlet, A2)                                    [converged]
  Term symbol:  4 (1) A2                                    R^2 =  2.84189e-08
  Excitation energy:                                               6.629230 eV
  Excited state 5 (singlet, A2)                                    [converged]
  Term symbol:  5 (1) A2                                    R^2 =  2.06487e-08
  Excitation energy:                                               7.580789 eV
  Excited state 6 (singlet, A2)                                    [converged]
  Term symbol:  6 (1) A2                                    R^2 =  1.18184e-07
  Excitation energy:                                               8.411809 eV
  Excited state 7 (singlet, A2)                                    [converged]
  Term symbol:  7 (1) A2                                    R^2 =  9.98911e-09
  Excitation energy:                                               9.142723 eV
  Excited state 8 (singlet, A2)                                    [converged]
  Term symbol:  8 (1) A2                                    R^2 =  1.57255e-06
  Excitation energy:                                               9.344312 eV
  Excited state 9 (singlet, A2)                                    [converged]
  Term symbol:  9 (1) A2                                    R^2 =  3.80687e-06
  Excitation energy:                                               9.613509 eV
  Excited state 10 (singlet, A2)                                    [converged]
  Term symbol:  10 (1) A2                                   R^2 =  2.06736e-07
  Excitation energy:                                               9.999043 eV

             Orbital Energies (a.u.) and Symmetries
 --------------------------------------------------------------

 Alpha MOs, Restricted
 -- Occupied --
-11.081 -11.079  -0.886  -0.628  -0.503  -0.414  -0.358  -0.223
  1 A1    1 B1    2 A1    2 B1    3 A1    4 A1    3 B1    1 B2
 -0.037
  5 A1

 Beta MOs, Restricted
 -- Occupied --
-11.081 -11.079  -0.886  -0.628  -0.503  -0.414  -0.358  -0.223
  1 A1    1 B1    2 A1    2 B1    3 A1    4 A1    3 B1    1 B2
 -0.037
  5 A1

          Ground-State Mulliken Net Atomic Charges

     Atom                 Charge (a.u.)
  ----------------------------------------
      1 C                    -0.349512
      2 C                    -0.349512
      3 H                     0.136839
      4 H                     0.136839
      5 H                     0.022393
      6 H                     0.022393
      7 H                    -0.619442
  ----------------------------------------
  Sum of atomic charges =    -1.000000

                    Cartesian Multipole Moments
 -----------------------------------------------------------------
    Charge (ESU x 10^10)
                -4.8032
    Dipole Moment (Debye)
         X       0.0000      Y       0.0000      Z     -11.5542
       Tot      11.5542
    Quadrupole Moments (Debye-Ang)
        XX     -21.9243     XY       0.0000     YY     -24.0446
        XZ      -0.0000     YZ      -0.0000     ZZ     -61.0948

 Total job time:  112.87s(wall), 151.01s(cpu)
        *  Thank you very much for using Q-Chem.  Have a nice day.  *
