 Q-Chem 5.4 (devel), Q-Chem, Inc., Pleasanton, CA (2021)
 Q-Chem 5.4.1 for Intel X86 EM64T Linux

User input:
--------------------------------------------------------------
$comment
	Ethylene CAP-EOM-CCSD
	Basis: C: aDZ+4p1d, H: DZ
$end

$molecule
0 1
C       0.6645000000    -0.0000000000    -0.0000000000
C      -0.6645000000     0.0000000000     0.0000000000
H       1.1590799571     0.9623485159     0.0000000000
H       1.1590799571    -0.9623485159    -0.0000000000
H      -1.1590799571    -0.9623485159    -0.0000000000
H      -1.1590799571     0.9623485159     0.0000000000
$end

$rem
	method eom-mp2
	basis gen
        EA_STATES [0,0,5,0,0,0,0,0]
	complex_ccman 1
	scf_convergence 8
	thresh 14
	mem_total 95000
	threads 12
$end

#	xc_grid 000250000974
$complex_ccman
	cap_type 2 #voronoi cap
	proj_cap 2 # 1 for CAP/EOM-CCSD with projected CAP added at the CCSD and EOM steps
	eta_step 20
	cap_eta 100
	cap_x 3500
	nsteps 50
$end

$basis
H     0
S   4   1.00
      1.301000D+01           1.968500D-02
      1.962000D+00           1.379770D-01
      4.446000D-01           4.781480D-01
      1.220000D-01           5.012400D-01
S   1   1.00
      1.220000D-01           1.000000D+00
P   1   1.00
      7.270000D-01           1.0000000
****
C     0
S   9   1.00
      6.665000D+03           6.920000D-04
      1.000000D+03           5.329000D-03
      2.280000D+02           2.707700D-02
      6.471000D+01           1.017180D-01
      2.106000D+01           2.747400D-01
      7.495000D+00           4.485640D-01
      2.797000D+00           2.850740D-01
      5.215000D-01           1.520400D-02
      1.596000D-01          -3.191000D-03
S   9   1.00
      6.665000D+03          -1.460000D-04
      1.000000D+03          -1.154000D-03
      2.280000D+02          -5.725000D-03
      6.471000D+01          -2.331200D-02
      2.106000D+01          -6.395500D-02
      7.495000D+00          -1.499810D-01
      2.797000D+00          -1.272620D-01
      5.215000D-01           5.445290D-01
      1.596000D-01           5.804960D-01
S   1   1.00
      1.596000D-01           1.000000D+00
S   1   1.00
      0.0469000              1.0000000
P   4   1.00
      9.439000D+00           3.810900D-02
      2.002000D+00           2.094800D-01
      5.456000D-01           5.085570D-01
      1.517000D-01           4.688420D-01
P   1   1.00
      1.517000D-01           1.000000D+00
P   1   1.00
      0.0404100              1.0000000
P    1  1.00
     0.0269400   1.0
P    1  1.00
     0.0179600   1.0
P    1  1.00
     0.0119733   1.0
P    1  1.00
     0.0079822   1.0
D   1   1.00
      5.500000D-01           1.0000000
D   1   1.00
      0.1510000              1.0000000
D    1  1.00
     0.0755000   1.0
****
$end
--------------------------------------------------------------

             Standard Nuclear Orientation (Angstroms)
    I     Atom           X                Y                Z
 ----------------------------------------------------------------
    1      C       0.6645000000     0.0000000000    -0.0000000000
    2      C      -0.6645000000    -0.0000000000     0.0000000000
    3      H       1.1590799571     0.9623485159    -0.0000000000
    4      H       1.1590799571    -0.9623485159    -0.0000000000
    5      H      -1.1590799571    -0.9623485159     0.0000000000
    6      H      -1.1590799571     0.9623485159     0.0000000000
 ----------------------------------------------------------------

   10     -78.0387184659      2.14e-09  Convergence criterion met
 Total energy in the final basis set =      -78.0387184659
           Solving for CS/CAP-EOMEA-CCSD B2g transitions.
 CS/CAP-EOMEA-CCSD transition 1/B2g
 Total energy = (-78.29558728 , -0.01117417) a.u.  Excitation energy =  (0.7390 , -0.3041) eV.
 CS/CAP-EOMEA-CCSD transition 2/B2g
 Total energy = (-78.27716273 , -0.05335147) a.u.  Excitation energy =  (1.2403 , -1.4518) eV.
 CS/CAP-EOMEA-CCSD transition 3/B2g
 Total energy = (-78.24653117 , -0.01093669) a.u.  Excitation energy =  (2.0739 , -0.2976) eV.
 CS/CAP-EOMEA-CCSD transition 4/B2g
 Total energy = (-78.21474448 , -0.02272200) a.u.  Excitation energy =  (2.9388 , -0.6183) eV.
 CS/CAP-EOMEA-CCSD transition 5/B2g
 Total energy = (-78.13435772 , -0.02040317) a.u.  Excitation energy =  (5.1262 , -0.5552) eV.
 Excited state properties for EOMEA-CCSD transition 1/B2g
 Excited state properties for EOMEA-CCSD transition 2/B2g
 Excited state properties for EOMEA-CCSD transition 3/B2g
 Excited state properties for EOMEA-CCSD transition 4/B2g
 Excited state properties for EOMEA-CCSD transition 5/B2g
           Solving for CS/CAP-EOMEA-CCSD B2g transitions.
 CS/CAP-EOMEA-CCSD transition 1/B2g
 Total energy = (-78.29519035 , -0.01186750) a.u.  Excitation energy =  (0.7498 , -0.3229) eV.
 CS/CAP-EOMEA-CCSD transition 2/B2g
 Total energy = (-78.24568040 , -0.01132382) a.u.  Excitation energy =  (2.0970 , -0.3081) eV.
 CS/CAP-EOMEA-CCSD transition 3/B2g
 Total energy = (-78.27559835 , -0.06728422) a.u.  Excitation energy =  (1.2829 , -1.8309) eV.
 CS/CAP-EOMEA-CCSD transition 4/B2g
 Total energy = (-78.21612820 , -0.02748922) a.u.  Excitation energy =  (2.9012 , -0.7480) eV.
 CS/CAP-EOMEA-CCSD transition 5/B2g
 Total energy = (-78.13506645 , -0.02444198) a.u.  Excitation energy =  (5.1070 , -0.6651) eV.
 Excited state properties for EOMEA-CCSD transition 1/B2g
 Excited state properties for EOMEA-CCSD transition 2/B2g
 Excited state properties for EOMEA-CCSD transition 3/B2g
 Excited state properties for EOMEA-CCSD transition 4/B2g
 Excited state properties for EOMEA-CCSD transition 5/B2g
           Solving for CS/CAP-EOMEA-CCSD B2g transitions.
 CS/CAP-EOMEA-CCSD transition 1/B2g
 Total energy = (-78.29493374 , -0.01275545) a.u.  Excitation energy =  (0.7568 , -0.3471) eV.
 CS/CAP-EOMEA-CCSD transition 2/B2g
 Total energy = (-78.24467577 , -0.01134404) a.u.  Excitation energy =  (2.1243 , -0.3087) eV.
 CS/CAP-EOMEA-CCSD transition 3/B2g
 Total energy = (-78.27407017 , -0.08122662) a.u.  Excitation energy =  (1.3245 , -2.2103) eV.
 CS/CAP-EOMEA-CCSD transition 4/B2g
 CS/CAP-EOMEA-CCSD transition 5/B2g
 Excited state properties for EOMEA-CCSD transition 1/B2g
 Excited state properties for EOMEA-CCSD transition 2/B2g
 Excited state properties for EOMEA-CCSD transition 3/B2g
 Excited state properties for EOMEA-CCSD transition 4/B2g
 Excited state properties for EOMEA-CCSD transition 5/B2g
           Solving for CS/CAP-EOMEA-CCSD B2g transitions.
 CS/CAP-EOMEA-CCSD transition 1/B2g
 CS/CAP-EOMEA-CCSD transition 2/B2g
 CS/CAP-EOMEA-CCSD transition 3/B2g
 CS/CAP-EOMEA-CCSD transition 4/B2g
 CS/CAP-EOMEA-CCSD transition 5/B2g
 Excited state properties for EOMEA-CCSD transition 1/B2g
 CS/CAP-EOMEA-CCSD transition 4/B2g
 CS/CAP-EOMEA-CCSD transition 5/B2g
 Excited state properties for EOMEA-CCSD transition 1/B2g
 Excited state properties for EOMEA-CCSD transition 2/B2g
 Excited state properties for EOMEA-CCSD transition 3/B2g
 Excited state properties for EOMEA-CCSD transition 4/B2g
 Excited state properties for EOMEA-CCSD transition 5/B2g
           Solving for CS/CAP-EOMEA-CCSD B2g transitions.
 CS/CAP-EOMEA-CCSD transition 1/B2g
 Total energy = (-78.29301101 , -0.06949055) a.u.  Excitation energy =  (0.8091 , -1.8909) eV.
 CS/CAP-EOMEA-CCSD transition 2/B2g
 Total energy = (-78.23442520 , -0.00915451) a.u.  Excitation energy =  (2.4033 , -0.2491) eV.
 CS/CAP-EOMEA-CCSD transition 3/B2g
 Total energy = (-78.13959690 , -0.12469703) a.u.  Excitation energy =  (4.9837 , -3.3932) eV.
 CS/CAP-EOMEA-CCSD transition 4/B2g
 Total energy = (-78.05290778 , -0.09988206) a.u.  Excitation energy =  (7.3426 , -2.7179) eV.
 CS/CAP-EOMEA-CCSD transition 5/B2g
 Total energy = (-78.06870590 , -0.21850987) a.u.  Excitation energy =  (6.9127 , -5.9460) eV.
 Excited state properties for EOMEA-CCSD transition 1/B2g
 Excited state properties for EOMEA-CCSD transition 2/B2g
 Excited state properties for EOMEA-CCSD transition 3/B2g
 Excited state properties for EOMEA-CCSD transition 4/B2g
 Excited state properties for EOMEA-CCSD transition 5/B2g
           Solving for CS/CAP-EOMEA-CCSD B2g transitions.
 CS/CAP-EOMEA-CCSD transition 1/B2g
 Total energy = (-78.29299559 , -0.07079184) a.u.  Excitation energy =  (0.8095 , -1.9263) eV.
 CS/CAP-EOMEA-CCSD transition 2/B2g
 Total energy = (-78.23433987 , -0.00915463) a.u.  Excitation energy =  (2.4056 , -0.2491) eV.
 CS/CAP-EOMEA-CCSD transition 3/B2g
 Total energy = (-78.13774001 , -0.12753155) a.u.  Excitation energy =  (5.0342 , -3.4703) eV.
 CS/CAP-EOMEA-CCSD transition 4/B2g
 Total energy = (-78.05465725 , -0.10090930) a.u.  Excitation energy =  (7.2950 , -2.7459) eV.
 CS/CAP-EOMEA-CCSD transition 5/B2g
 Total energy = (-78.06926666 , -0.22273865) a.u.  Excitation energy =  (6.8975 , -6.0610) eV.
 Excited state properties for EOMEA-CCSD transition 1/B2g
 Excited state properties for EOMEA-CCSD transition 2/B2g
 Excited state properties for EOMEA-CCSD transition 3/B2g
 Excited state properties for EOMEA-CCSD transition 4/B2g
 Excited state properties for EOMEA-CCSD transition 5/B2g
           Solving for CS/CAP-EOMEA-CCSD B2g transitions.
 CS/CAP-EOMEA-CCSD transition 1/B2g
 Total energy = (-78.29298136 , -0.07209354) a.u.  Excitation energy =  (0.8099 , -1.9618) eV.
 CS/CAP-EOMEA-CCSD transition 2/B2g
 Total energy = (-78.23423439 , -0.00916561) a.u.  Excitation energy =  (2.4085 , -0.2494) eV.
 CS/CAP-EOMEA-CCSD transition 3/B2g
 Total energy = (-78.13581508 , -0.13048754) a.u.  Excitation energy =  (5.0866 , -3.5507) eV.
 CS/CAP-EOMEA-CCSD transition 4/B2g
 Total energy = (-78.05645449 , -0.10182377) a.u.  Excitation energy =  (7.2461 , -2.7708) eV.
 CS/CAP-EOMEA-CCSD transition 5/B2g
 Total energy = (-78.06928524 , -0.22687989) a.u.  Excitation energy =  (6.8970 , -6.1737) eV.
 Excited state properties for EOMEA-CCSD transition 1/B2g
 Excited state properties for EOMEA-CCSD transition 2/B2g
 Excited state properties for EOMEA-CCSD transition 3/B2g
 Excited state properties for EOMEA-CCSD transition 4/B2g
 Excited state properties for EOMEA-CCSD transition 5/B2g

             Orbital Energies (a.u.) and Symmetries
 --------------------------------------------------------------

 Alpha MOs, Restricted
 -- Occupied --
-11.236 -11.235  -1.042  -0.782  -0.660  -0.567  -0.515  -0.377
  1 Ag    1 B3u   2 Ag    2 B3u   1 B2u   3 Ag    1 B1g   1 B1u

 Beta MOs, Restricted
 -- Occupied --
-11.236 -11.235  -1.042  -0.782  -0.660  -0.567  -0.515  -0.377
  1 Ag    1 B3u   2 Ag    2 B3u   1 B2u   3 Ag    1 B1g   1 B1u

          Ground-State Mulliken Net Atomic Charges

     Atom                 Charge (a.u.)
  ----------------------------------------
      1 C                    -0.077393
      2 C                    -0.077393
      3 H                     0.038697
      4 H                     0.038697
      5 H                     0.038697
      6 H                     0.038697
  ----------------------------------------
  Sum of atomic charges =     0.000000

                    Cartesian Multipole Moments
 -----------------------------------------------------------------
    Charge (ESU x 10^10)
                -0.0000
    Dipole Moment (Debye)
         X      -0.0000      Y      -0.0000      Z      -0.0000
       Tot       0.0000
    Quadrupole Moments (Debye-Ang)
        XX     -12.9004     XY       0.0000     YY     -11.9748
        XZ      -0.0000     YZ       0.0000     ZZ     -16.1438

 Total job time:  3166.58s(wall), 14712.45s(cpu)
        *  Thank you very much for using Q-Chem.  Have a nice day.  *
