 Q-Chem 5.4 (devel), Q-Chem, Inc., Pleasanton, CA (2021)
 Q-Chem 5.4.1 for Intel X86 EM64T Linux

User input:
--------------------------------------------------------------
$comment
	Ethylene CAP-EOM-CCSD
	Basis: C: jun-TZ+4p1d, H: TZ
$end

$molecule
0 1
C       0.6645000000    -0.0000000000    -0.0000000000
C      -0.6645000000     0.0000000000     0.0000000000
H       1.1590799571     0.9623485159     0.0000000000
H       1.1590799571    -0.9623485159    -0.0000000000
H      -1.1590799571    -0.9623485159    -0.0000000000
H      -1.1590799571     0.9623485159     0.0000000000
$end

$rem
	method eom-ccsd
	basis gen
        EA_STATES [0,0,10,0,0,0,0,0]
	complex_ccman 1
	xc_grid 000250000974
	scf_convergence 8
	thresh 14
	mem_total 95000
	threads 12
$end

$complex_ccman
	cap_type 2
	proj_cap 3
	cap_eta 300
	cap_x 3500
$end

$basis
H     0
S    1   1.00
      3.258000D-01           1.000000D+00
S    5   1.00
      3.387000D+01           6.068000D-03
      5.095000D+00           4.530800D-02
      1.159000D+00           2.028220D-01
      3.258000D-01           5.039030D-01
      1.027000D-01           3.834210D-01
S    1   1.00
      1.027000D-01           1.000000D+00
P    1   1.00
      1.407000D+00           1.000000D+00
P    1   1.00
      3.880000D-01           1.000000D+00
D    1   1.00
      1.057000D+00           1.0000000
****
C     0
S    8   1.00
   8236.0000000              0.0005310
   1235.0000000              0.0041080
    280.8000000              0.0210870
     79.2700000              0.0818530
     25.5900000              0.2348170
      8.9970000              0.4344010
      3.3190000              0.3461290
      0.3643000             -0.0089830
S    1   1.00
      0.9059000              1.0000000
S    8   1.00
   8236.0000000             -0.0001130
   1235.0000000             -0.0008780
    280.8000000             -0.0045400
     79.2700000             -0.0181330
     25.5900000             -0.0557600
      8.9970000             -0.1268950
      3.3190000             -0.1703520
      0.3643000              0.5986840
S    1   1.00
      0.1285000              1.0000000
S    1   1.00
      0.0440200              1.0000000
P    3   1.00
     18.7100000              0.0140310
      4.1330000              0.0868660
      1.2000000              0.2902160
P    1   1.00
      0.3827000              1.0000000
P    1   1.00
      0.1209000              1.0000000
P    1   1.00
      0.0356900              1.0000000
P    1   1.0
      0.0237933 1.0
P    1   1.0
      0.0158622 1.0
P    1   1.0
      0.0105748 1.0
P    1   1.0
      0.0070498 1.0
D    1   1.00
      1.0970000              1.0000000
D    1   1.00
      0.3180000              1.0000000
D    1   1.00
      0.1000000              1.0000000
D    1   1.00
      0.0500000 1.0
F    1   1.00
      0.7610000              1.0000000
****
$end
--------------------------------------------------------------

             Standard Nuclear Orientation (Angstroms)
    I     Atom           X                Y                Z
 ----------------------------------------------------------------
    1      C       0.6645000000     0.0000000000    -0.0000000000
    2      C      -0.6645000000    -0.0000000000     0.0000000000
    3      H       1.1590799571     0.9623485159    -0.0000000000
    4      H       1.1590799571    -0.9623485159    -0.0000000000
    5      H      -1.1590799571    -0.9623485159     0.0000000000
    6      H      -1.1590799571     0.9623485159     0.0000000000
 ----------------------------------------------------------------

   10     -78.0602610489      2.87e-09  Convergence criterion met
 Total energy in the final basis set =      -78.0602610489
 CCSD total energy          = -78.42148808
        Solving for EOMEA-CCSD/MP2 B2g transitions.
 EOMEA transition 1/B2g
 Total energy = -78.40558847 a.u.  Excitation energy = 0.4327 eV.
 EOMEA transition 2/B2g
 Total energy = -78.38026085 a.u.  Excitation energy = 1.1219 eV.
 EOMEA transition 3/B2g
 Total energy = -78.34868960 a.u.  Excitation energy = 1.9809 eV.
 EOMEA transition 4/B2g
 Total energy = -78.31850250 a.u.  Excitation energy = 2.8024 eV.
 EOMEA transition 5/B2g
 Total energy = -78.25239111 a.u.  Excitation energy = 4.6014 eV.
 EOMEA transition 6/B2g
 Total energy = -78.17781860 a.u.  Excitation energy = 6.6306 eV.
 EOMEA transition 7/B2g
 Total energy = -78.17765958 a.u.  Excitation energy = 6.6349 eV.
 EOMEA transition 8/B2g
 Total energy = -78.17040174 a.u.  Excitation energy = 6.8324 eV.
 EOMEA transition 9/B2g
 Total energy = -78.15491668 a.u.  Excitation energy = 7.2538 eV.
 EOMEA transition 10/B2g
 Total energy = -78.15341744 a.u.  Excitation energy = 7.2946 eV.
 Excited state properties for  EOMEA-CCSD transition 1/B2g
 Excited state properties for  EOMEA-CCSD transition 2/B2g
 Excited state properties for  EOMEA-CCSD transition 3/B2g
 Excited state properties for  EOMEA-CCSD transition 4/B2g
 Excited state properties for  EOMEA-CCSD transition 5/B2g
 Excited state properties for  EOMEA-CCSD transition 6/B2g
 Excited state properties for  EOMEA-CCSD transition 7/B2g
 Excited state properties for  EOMEA-CCSD transition 8/B2g
 Excited state properties for  EOMEA-CCSD transition 9/B2g
 Excited state properties for  EOMEA-CCSD transition 10/B2g

             Orbital Energies (a.u.) and Symmetries
 --------------------------------------------------------------

 Alpha MOs, Restricted
 -- Occupied --
-11.228 -11.226  -1.040  -0.781  -0.661  -0.568  -0.516  -0.377
  1 Ag    1 B3u   2 Ag    2 B3u   1 B2u   3 Ag    1 B1g   1 B1u

 Beta MOs, Restricted
 -- Occupied --
-11.228 -11.226  -1.040  -0.781  -0.661  -0.568  -0.516  -0.377
  1 Ag    1 B3u   2 Ag    2 B3u   1 B2u   3 Ag    1 B1g   1 B1u

          Ground-State Mulliken Net Atomic Charges

     Atom                 Charge (a.u.)
  ----------------------------------------
      1 C                    -0.349372
      2 C                    -0.349372
      3 H                     0.174686
      4 H                     0.174686
      5 H                     0.174686
      6 H                     0.174686
  ----------------------------------------
  Sum of atomic charges =     0.000000

                    Cartesian Multipole Moments
 -----------------------------------------------------------------
    Charge (ESU x 10^10)
                 0.0000
    Dipole Moment (Debye)
         X       0.0000      Y      -0.0000      Z       0.0000
       Tot       0.0000
    Quadrupole Moments (Debye-Ang)
        XX     -12.8319     XY       0.0000     YY     -11.9245
        XZ      -0.0000     YZ      -0.0000     ZZ     -16.1256

 Total job time:  258.10s(wall), 1422.32s(cpu)
        *  Thank you very much for using Q-Chem.  Have a nice day.  *
