 Q-Chem 5.4 (devel), Q-Chem, Inc., Pleasanton, CA (2021)
 Q-Chem 5.4.1 for Intel X86 EM64T Linux

User input:
--------------------------------------------------------------
$comment
	Ethylene CAP-ADC(2)
	Basis: C: jun-TZ+4p1d, H: TZ
$end

$molecule
0 1
C       0.6645000000    -0.0000000000    -0.0000000000
C      -0.6645000000     0.0000000000     0.0000000000
H       1.1590799571     0.9623485159     0.0000000000
H       1.1590799571    -0.9623485159    -0.0000000000
H      -1.1590799571    -0.9623485159    -0.0000000000
H      -1.1590799571     0.9623485159     0.0000000000
$end

$rem
	basis gen
	method adc(2)
        EA_STATES [0,0,10,0,0,0,0,0]
	scf_convergence 8
	thresh 14
	adc_cap 1
	cap_type 2
	cap_x 1500
	cap_x_end 5000
	cap_x_step 500
	xc_grid 000250000974
	adc_print 3
	adc_davidson_conv 5
	adc_nguess_singles 100
	adc_nguess_doubles 50
	adc_davidson_maxsubspace 400
	adc_davidson_maxiter 40
	adc_davidson_thresh 14
	mem_total 95000
	threads 12
$end

$basis
H     0
S    1   1.00
      3.258000D-01           1.000000D+00
S    5   1.00
      3.387000D+01           6.068000D-03
      5.095000D+00           4.530800D-02
      1.159000D+00           2.028220D-01
      3.258000D-01           5.039030D-01
      1.027000D-01           3.834210D-01
S    1   1.00
      1.027000D-01           1.000000D+00
P    1   1.00
      1.407000D+00           1.000000D+00
P    1   1.00
      3.880000D-01           1.000000D+00
D    1   1.00
      1.057000D+00           1.0000000
****
C     0
S    8   1.00
   8236.0000000              0.0005310
   1235.0000000              0.0041080
    280.8000000              0.0210870
     79.2700000              0.0818530
     25.5900000              0.2348170
      8.9970000              0.4344010
      3.3190000              0.3461290
      0.3643000             -0.0089830
S    1   1.00
      0.9059000              1.0000000
S    8   1.00
   8236.0000000             -0.0001130
   1235.0000000             -0.0008780
    280.8000000             -0.0045400
     79.2700000             -0.0181330
     25.5900000             -0.0557600
      8.9970000             -0.1268950
      3.3190000             -0.1703520
      0.3643000              0.5986840
S    1   1.00
      0.1285000              1.0000000
S    1   1.00
      0.0440200              1.0000000
P    3   1.00
     18.7100000              0.0140310
      4.1330000              0.0868660
      1.2000000              0.2902160
P    1   1.00
      0.3827000              1.0000000
P    1   1.00
      0.1209000              1.0000000
P    1   1.00
      0.0356900              1.0000000
P    1   1.0
      0.0237933 1.0
P    1   1.0
      0.0158622 1.0
P    1   1.0
      0.0105748 1.0
P    1   1.0
      0.0070498 1.0
D    1   1.00
      1.0970000              1.0000000
D    1   1.00
      0.3180000              1.0000000
D    1   1.00
      0.1000000              1.0000000
D    1   1.00
      0.0500000 1.0
F    1   1.00
      0.7610000              1.0000000
****
$end
--------------------------------------------------------------

             Standard Nuclear Orientation (Angstroms)
    I     Atom           X                Y                Z
 ----------------------------------------------------------------
    1      C       0.6645000000     0.0000000000    -0.0000000000
    2      C      -0.6645000000    -0.0000000000     0.0000000000
    3      H       1.1590799571     0.9623485159    -0.0000000000
    4      H       1.1590799571    -0.9623485159    -0.0000000000
    5      H      -1.1590799571    -0.9623485159     0.0000000000
    6      H      -1.1590799571     0.9623485159     0.0000000000
 ----------------------------------------------------------------

   10     -78.0602610503      1.97E-09 Convergence criterion met
 Total energy in the final basis set = -78.06026105
  Term symbol:  1 (2) B2g                                   R^2 =  3.06079e-09
  Term symbol:  2 (2) B2g                                   R^2 =  2.50757e-08
  Term symbol:  3 (2) B2g                                   R^2 =  1.24933e-07
  Term symbol:  4 (2) B2g                                   R^2 =  1.35483e-07
  Term symbol:  5 (2) B2g                                   R^2 =  1.49990e-07
  Term symbol:  6 (2) B2g                                   R^2 =  1.26911e-07
  Term symbol:  7 (2) B2g                                   R^2 =  3.61957e-07
  Term symbol:  8 (2) B2g                                   R^2 =  1.99076e-12
  Term symbol:  9 (2) B2g                                   R^2 =  6.29682e-12
  Term symbol:  10 (2) B2g                                  R^2 =  4.95075e-11
  Excitation energy:                                               0.682587 eV
  Excitation energy:                                               1.420364 eV
  Excitation energy:                                               0.737777 eV
  Excitation energy:                                               2.238576 eV
  Excitation energy:                                               1.555989 eV
  Excitation energy:                                               0.818212 eV
  Excitation energy:                                               4.111186 eV
  Excitation energy:                                               3.428598 eV
  Excitation energy:                                               2.690822 eV
  Excitation energy:                                               1.872610 eV
  Excitation energy:                                               6.394785 eV
  Excitation energy:                                               5.712198 eV
  Excitation energy:                                               4.974421 eV
  Excitation energy:                                               4.156209 eV
  Excitation energy:                                               2.283599 eV
  Excitation energy:                                               8.353587 eV
  Excitation energy:                                               7.671000 eV
  Excitation energy:                                               6.933223 eV
  Excitation energy:                                               6.115011 eV
  Excitation energy:                                               4.242401 eV
  Excitation energy:                                               1.958802 eV
  Excitation energy:                                              10.547271 eV
  Excitation energy:                                               9.864684 eV
  Excitation energy:                                               9.126907 eV
  Excitation energy:                                               8.308695 eV
  Excitation energy:                                               6.436086 eV
  Excitation energy:                                               4.152486 eV
  Excitation energy:                                               2.193684 eV
  Excitation energy:                                              10.547272 eV
  Excitation energy:                                               9.864684 eV
  Excitation energy:                                               9.126907 eV
  Excitation energy:                                               8.308695 eV
  Excitation energy:                                               6.436086 eV
  Excitation energy:                                               4.152486 eV
  Excitation energy:                                               2.193684 eV
  Excitation energy:                                               0.000000 eV
  Excitation energy:                                              10.572583 eV
  Excitation energy:                                               9.889996 eV
  Excitation energy:                                               9.152219 eV
  Excitation energy:                                               8.334007 eV
  Excitation energy:                                               6.461397 eV
  Excitation energy:                                               4.177798 eV
  Excitation energy:                                               2.218996 eV
  Excitation energy:                                               0.025312 eV
  Excitation energy:                                               0.025312 eV

             Orbital Energies (a.u.) and Symmetries
 --------------------------------------------------------------

 Alpha MOs, Restricted
 -- Occupied --
-11.228 -11.226  -1.040  -0.781  -0.661  -0.568  -0.516  -0.377
  1 Ag    1 B3u   2 Ag    2 B3u   1 B2u   3 Ag    1 B1g   1 B1u

 Beta MOs, Restricted
 -- Occupied --
-11.228 -11.226  -1.040  -0.781  -0.661  -0.568  -0.516  -0.377
  1 Ag    1 B3u   2 Ag    2 B3u   1 B2u   3 Ag    1 B1g   1 B1u

          Ground-State Mulliken Net Atomic Charges

     Atom                 Charge (a.u.)
  ----------------------------------------
      1 C                    -0.349372
      2 C                    -0.349372
      3 H                     0.174686
      4 H                     0.174686
      5 H                     0.174686
      6 H                     0.174686
  ----------------------------------------
  Sum of atomic charges =     0.000000

                    Cartesian Multipole Moments
 -----------------------------------------------------------------
    Charge (ESU x 10^10)
                 0.0000
    Dipole Moment (Debye)
         X      -0.0000      Y      -0.0000      Z       0.0000
       Tot       0.0000
    Quadrupole Moments (Debye-Ang)
        XX     -12.8319     XY       0.0000     YY     -11.9245
        XZ      -0.0000     YZ      -0.0000     ZZ     -16.1256

 Total job time:  161.64s(wall), 509.10s(cpu)
        *  Thank you very much for using Q-Chem.  Have a nice day.  *
