 Q-Chem 5.4 (devel), Q-Chem, Inc., Pleasanton, CA (2021)
 Q-Chem 5.4.1 for Intel X86 EM64T Linux

User input:
--------------------------------------------------------------
$comment
	H_Ethylene CAP-ADC(2)-x
	Basis: C: aDZ+4p1d, H: DZ
$end

$molecule
-1 1
C        -0.6645000000    0.0000000000   -0.1764707059
C         0.6645000000    0.0000000000   -0.1764707059
H        -1.1590800000    0.0000000000    0.7858782941
H         1.1590800000    0.0000000000    0.7858782941
H        -1.1590800000    0.0000000000   -1.1388187059
H         1.1590800000    0.0000000000   -1.1388187059
H         0.0000000000    0.0000000000    2.8235292941
$end

$rem
	basis gen
	method adc(2)-x
        EE_STATES [0,30,0,0]
	scf_convergence 8
	thresh 14
	adc_cap 1
	cap_type 2
	cap_x 1500
	cap_x_end 5000
	cap_x_step 500
	xc_grid 000250000974
	adc_print 3
	adc_davidson_conv 5
	adc_nguess_singles 100
	adc_nguess_doubles 50
	adc_davidson_maxsubspace 400
	adc_davidson_maxiter 40
	adc_davidson_thresh 14
	mem_total 95000
	threads 12
$end

$basis
C     1
S   9   1.00
      6.665000D+03           6.920000D-04
      1.000000D+03           5.329000D-03
      2.280000D+02           2.707700D-02
      6.471000D+01           1.017180D-01
      2.106000D+01           2.747400D-01
      7.495000D+00           4.485640D-01
      2.797000D+00           2.850740D-01
      5.215000D-01           1.520400D-02
      1.596000D-01          -3.191000D-03
S   9   1.00
      6.665000D+03          -1.460000D-04
      1.000000D+03          -1.154000D-03
      2.280000D+02          -5.725000D-03
      6.471000D+01          -2.331200D-02
      2.106000D+01          -6.395500D-02
      7.495000D+00          -1.499810D-01
      2.797000D+00          -1.272620D-01
      5.215000D-01           5.445290D-01
      1.596000D-01           5.804960D-01
S   1   1.00
      1.596000D-01           1.000000D+00
S   1   1.00
      0.0469000              1.0000000
P   4   1.00
      9.439000D+00           3.810900D-02
      2.002000D+00           2.094800D-01
      5.456000D-01           5.085570D-01
      1.517000D-01           4.688420D-01
P   1   1.00
      1.517000D-01           1.000000D+00
P   1   1.00
      0.0404100              1.0000000
P    1  1.00
     0.0269400   1.0
P    1  1.00
     0.0179600   1.0
P    1  1.00
     0.0119733   1.0
P    1  1.00
     0.0079822   1.0
D   1   1.00
      5.500000D-01           1.0000000
D   1   1.00
      0.1510000              1.0000000
D    1  1.00
     0.0755000   1.0
****
C     2
S   9   1.00
      6.665000D+03           6.920000D-04
      1.000000D+03           5.329000D-03
      2.280000D+02           2.707700D-02
      6.471000D+01           1.017180D-01
      2.106000D+01           2.747400D-01
      7.495000D+00           4.485640D-01
      2.797000D+00           2.850740D-01
      5.215000D-01           1.520400D-02
      1.596000D-01          -3.191000D-03
S   9   1.00
      6.665000D+03          -1.460000D-04
      1.000000D+03          -1.154000D-03
      2.280000D+02          -5.725000D-03
      6.471000D+01          -2.331200D-02
      2.106000D+01          -6.395500D-02
      7.495000D+00          -1.499810D-01
      2.797000D+00          -1.272620D-01
      5.215000D-01           5.445290D-01
      1.596000D-01           5.804960D-01
S   1   1.00
      1.596000D-01           1.000000D+00
S   1   1.00
      0.0469000              1.0000000
P   4   1.00
      9.439000D+00           3.810900D-02
      2.002000D+00           2.094800D-01
      5.456000D-01           5.085570D-01
      1.517000D-01           4.688420D-01
P   1   1.00
      1.517000D-01           1.000000D+00
P   1   1.00
      0.0404100              1.0000000
P    1  1.00
     0.0269400   1.0
P    1  1.00
     0.0179600   1.0
P    1  1.00
     0.0119733   1.0
P    1  1.00
     0.0079822   1.0
D   1   1.00
      5.500000D-01           1.0000000
D   1   1.00
      0.1510000              1.0000000
D    1  1.00
     0.0755000   1.0
****
H     3
S   4   1.00
      1.301000D+01           1.968500D-02
      1.962000D+00           1.379770D-01
      4.446000D-01           4.781480D-01
      1.220000D-01           5.012400D-01
S   1   1.00
      1.220000D-01           1.000000D+00
P   1   1.00
      7.270000D-01           1.0000000
****
H     4
S   4   1.00
      1.301000D+01           1.968500D-02
      1.962000D+00           1.379770D-01
      4.446000D-01           4.781480D-01
      1.220000D-01           5.012400D-01
S   1   1.00
      1.220000D-01           1.000000D+00
P   1   1.00
      7.270000D-01           1.0000000
****
H     5
S   4   1.00
      1.301000D+01           1.968500D-02
      1.962000D+00           1.379770D-01
      4.446000D-01           4.781480D-01
      1.220000D-01           5.012400D-01
S   1   1.00
      1.220000D-01           1.000000D+00
P   1   1.00
      7.270000D-01           1.0000000
****
H     6
S   4   1.00
      1.301000D+01           1.968500D-02
      1.962000D+00           1.379770D-01
      4.446000D-01           4.781480D-01
      1.220000D-01           5.012400D-01
S   1   1.00
      1.220000D-01           1.000000D+00
P   1   1.00
      7.270000D-01           1.0000000
****
H     7
S    4   1.00
      1.301000D+01           1.968500D-02
      1.962000D+00           1.379770D-01
      4.446000D-01           4.781480D-01
      1.220000D-01           5.012400D-01
S    1   1.00
      1.220000D-01           1.000000D+00
S    1   1.00
      0.0297400              1.0000000
P    1   1.00
      7.270000D-01           1.0000000
P    1   1.00
      0.1410000              1.0000000
****
$end
--------------------------------------------------------------

             Standard Nuclear Orientation (Angstroms)
    I     Atom           X                Y                Z
 ----------------------------------------------------------------
    1      C      -0.6645000000    -0.0000000000    -0.1764707059
    2      C       0.6645000000     0.0000000000    -0.1764707059
    3      H      -1.1590800000    -0.0000000000     0.7858782941
    4      H       1.1590800000     0.0000000000     0.7858782941
    5      H      -1.1590800000    -0.0000000000    -1.1388187059
    6      H       1.1590800000     0.0000000000    -1.1388187059
    7      H       0.0000000000     0.0000000000     2.8235292941
 ----------------------------------------------------------------

   11     -78.5201924333      9.90E-09 Convergence criterion met
 Total energy in the final basis set = -78.52019243
  Term symbol:  1 (1) A2                                    R^2 =  6.78213e-16
  Excitation energy:                                               0.613458 eV
  Term symbol:  2 (1) A2                                    R^2 =  2.72612e-15
  Excitation energy:                                               1.374613 eV
  Term symbol:  3 (1) A2                                    R^2 =  8.81721e-15
  Excitation energy:                                               2.163406 eV
  Term symbol:  4 (1) A2                                    R^2 =  3.13886e-15
  Excitation energy:                                               3.132188 eV
  Term symbol:  5 (1) A2                                    R^2 =  4.19124e-14
  Excitation energy:                                               5.225369 eV
  Term symbol:  6 (1) A2                                    R^2 =  2.10347e-13
  Excitation energy:                                               5.347327 eV
  Term symbol:  7 (1) A2                                    R^2 =  4.93959e-15
  Excitation energy:                                               5.515873 eV
  Term symbol:  8 (1) A2                                    R^2 =  3.95626e-14
  Excitation energy:                                               5.980755 eV
  Term symbol:  9 (1) A2                                    R^2 =  2.65866e-14
  Excitation energy:                                               6.049084 eV
  Excited state 10 (singlet, A2)                                   [converged]
  Term symbol:  10 (1) A2                                   R^2 =  3.60718e-14
  Excitation energy:                                               6.074225 eV
  Excited state 11 (singlet, A2)                                   [converged]
  Term symbol:  11 (1) A2                                   R^2 =  6.09624e-14
  Excitation energy:                                               6.768664 eV
  Excited state 12 (singlet, A2)                                   [converged]
  Term symbol:  12 (1) A2                                   R^2 =  1.48992e-14
  Excitation energy:                                               7.089874 eV
  Excited state 13 (singlet, A2)                                   [converged]
  Term symbol:  13 (1) A2                                   R^2 =  1.59237e-12
  Excitation energy:                                               7.416359 eV
  Excited state 14 (singlet, A2)                                   [converged]
  Term symbol:  14 (1) A2                                   R^2 =  2.68239e-13
  Excitation energy:                                               7.520254 eV
  Excited state 15 (singlet, A2)                                   [converged]
  Term symbol:  15 (1) A2                                   R^2 =  6.05219e-13
  Excitation energy:                                               7.893282 eV
  Excited state 16 (singlet, A2)                                   [converged]
  Term symbol:  16 (1) A2                                   R^2 =  1.70792e-12
  Excitation energy:                                               7.957148 eV
  Excited state 17 (singlet, A2)                                   [converged]
  Excitation energy:                                               0.838262 eV
  Excitation energy:                                               0.659736 eV
  Excitation energy:                                               0.618489 eV
  Excitation energy:                                               0.532221 eV
  Excitation energy:                                               0.495916 eV
  Excitation energy:                                               0.415950 eV
  Excitation energy:                                               0.365130 eV
  Excitation energy:                                               0.283700 eV
  Excitation energy:                                               0.150107 eV
  Excitation energy:                                               0.065258 eV
  Excitation energy:                                               0.041398 eV
  Excitation energy:                                               8.779011 eV
  Excitation energy:                                               8.017856 eV
  Excitation energy:                                               7.229063 eV
  Excitation energy:                                               6.260281 eV
  Excitation energy:                                               4.167100 eV
  Excitation energy:                                               4.045142 eV
  Excitation energy:                                               3.876596 eV
  Excitation energy:                                               3.411715 eV
  Excitation energy:                                               3.343385 eV
  Excitation energy:                                               3.318245 eV
  Excitation energy:                                               2.623806 eV
  Excitation energy:                                               2.302596 eV
  Excitation energy:                                               1.976110 eV
  Excitation energy:                                               1.872215 eV
  Excitation energy:                                               1.499187 eV
  Excitation energy:                                               1.435322 eV
  Excitation energy:                                               0.889838 eV
  Excitation energy:                                               0.850920 eV
  Excitation energy:                                               0.672393 eV
  Excitation energy:                                               0.631147 eV
  Excitation energy:                                               0.544879 eV
  Excitation energy:                                               0.508573 eV
  Excitation energy:                                               0.428607 eV
  Excitation energy:                                               0.377788 eV
  Excitation energy:                                               0.296358 eV
  Excitation energy:                                               0.162764 eV
  Excitation energy:                                               0.077916 eV
  Excitation energy:                                               0.054056 eV
  Excitation energy:                                               0.012658 eV

             Orbital Energies (a.u.) and Symmetries
 --------------------------------------------------------------

 Alpha MOs, Restricted
 -- Occupied --
-11.074 -11.072  -0.880  -0.622  -0.497  -0.407  -0.351  -0.217
  1 A1    1 B1    2 A1    2 B1    3 A1    4 A1    3 B1    1 B2
 -0.045
  5 A1

 Beta MOs, Restricted
 -- Occupied --
-11.074 -11.072  -0.880  -0.622  -0.497  -0.407  -0.351  -0.217
  1 A1    1 B1    2 A1    2 B1    3 A1    4 A1    3 B1    1 B2
 -0.045
  5 A1

          Ground-State Mulliken Net Atomic Charges

     Atom                 Charge (a.u.)
  ----------------------------------------
      1 C                    -0.371400
      2 C                    -0.371400
      3 H                     0.113850
      4 H                     0.113850
      5 H                     0.005039
      6 H                     0.005039
      7 H                    -0.494977
  ----------------------------------------
  Sum of atomic charges =    -1.000000

                    Cartesian Multipole Moments
 -----------------------------------------------------------------
    Charge (ESU x 10^10)
                -4.8032
    Dipole Moment (Debye)
         X       0.0000      Y       0.0000      Z     -11.1631
       Tot      11.1631
    Quadrupole Moments (Debye-Ang)
        XX     -26.3980     XY      -0.0000     YY     -26.0078
        XZ      -0.0000     YZ      -0.0000     ZZ     -55.7347

 Total job time:  1847.78s(wall), 11191.86s(cpu)
        *  Thank you very much for using Q-Chem.  Have a nice day.  *
