 Q-Chem 5.4 (devel), Q-Chem, Inc., Pleasanton, CA (2021)
 Q-Chem 5.4.1 for Intel X86 EM64T Linux

User input:
--------------------------------------------------------------
$comment
	H_Ethylene CAP-ADC(2) 3z
	Basis: C: aDZ+4p1d, H: DZ
$end

$molecule
-1 1
C         0.0000000000    0.0000000000    0.8417902907
C         0.0000000000    0.0000000000   -0.4872097093
H         0.9623488518    0.0000000000    1.3363703127
H         0.9623489048    0.0000000000   -0.9817896873
H        -0.9623488518    0.0000000000    1.3363703127
H        -0.9623489048    0.0000000000   -0.9817896873
H         0.0000000000    0.0000000000   -2.8366446508
$end

$rem
	basis gen
	method adc(2)
        EE_STATES [0,0,0,30]
	scf_convergence 8
	thresh 14
	adc_cap 1
	cap_type 2
	cap_x 1500
	cap_x_end 5000
	cap_x_step 500
	xc_grid 000250000974
	adc_print 3
	adc_davidson_conv 5
	adc_nguess_singles 100
	adc_nguess_doubles 50
	adc_davidson_maxsubspace 400
	adc_davidson_maxiter 40
	adc_davidson_thresh 14
	mem_total 95000
	threads 12
$end

$basis
C     1
S   9   1.00
      6.665000D+03           6.920000D-04
      1.000000D+03           5.329000D-03
      2.280000D+02           2.707700D-02
      6.471000D+01           1.017180D-01
      2.106000D+01           2.747400D-01
      7.495000D+00           4.485640D-01
      2.797000D+00           2.850740D-01
      5.215000D-01           1.520400D-02
      1.596000D-01          -3.191000D-03
S   9   1.00
      6.665000D+03          -1.460000D-04
      1.000000D+03          -1.154000D-03
      2.280000D+02          -5.725000D-03
      6.471000D+01          -2.331200D-02
      2.106000D+01          -6.395500D-02
      7.495000D+00          -1.499810D-01
      2.797000D+00          -1.272620D-01
      5.215000D-01           5.445290D-01
      1.596000D-01           5.804960D-01
S   1   1.00
      1.596000D-01           1.000000D+00
S   1   1.00
      0.0469000              1.0000000
P   4   1.00
      9.439000D+00           3.810900D-02
      2.002000D+00           2.094800D-01
      5.456000D-01           5.085570D-01
      1.517000D-01           4.688420D-01
P   1   1.00
      1.517000D-01           1.000000D+00
P   1   1.00
      0.0404100              1.0000000
P    1  1.00
     0.0269400   1.0
P    1  1.00
     0.0179600   1.0
P    1  1.00
     0.0119733   1.0
P    1  1.00
     0.0079822   1.0
D   1   1.00
      5.500000D-01           1.0000000
D   1   1.00
      0.1510000              1.0000000
D    1  1.00
     0.0755000   1.0
****
C     2
S   9   1.00
      6.665000D+03           6.920000D-04
      1.000000D+03           5.329000D-03
      2.280000D+02           2.707700D-02
      6.471000D+01           1.017180D-01
      2.106000D+01           2.747400D-01
      7.495000D+00           4.485640D-01
      2.797000D+00           2.850740D-01
      5.215000D-01           1.520400D-02
      1.596000D-01          -3.191000D-03
S   9   1.00
      6.665000D+03          -1.460000D-04
      1.000000D+03          -1.154000D-03
      2.280000D+02          -5.725000D-03
      6.471000D+01          -2.331200D-02
      2.106000D+01          -6.395500D-02
      7.495000D+00          -1.499810D-01
      2.797000D+00          -1.272620D-01
      5.215000D-01           5.445290D-01
      1.596000D-01           5.804960D-01
S   1   1.00
      1.596000D-01           1.000000D+00
S   1   1.00
      0.0469000              1.0000000
P   4   1.00
      9.439000D+00           3.810900D-02
      2.002000D+00           2.094800D-01
      5.456000D-01           5.085570D-01
      1.517000D-01           4.688420D-01
P   1   1.00
      1.517000D-01           1.000000D+00
P   1   1.00
      0.0404100              1.0000000
P    1  1.00
     0.0269400   1.0
P    1  1.00
     0.0179600   1.0
P    1  1.00
     0.0119733   1.0
P    1  1.00
     0.0079822   1.0
D   1   1.00
      5.500000D-01           1.0000000
D   1   1.00
      0.1510000              1.0000000
D    1  1.00
     0.0755000   1.0
****
H     3
S   4   1.00
      1.301000D+01           1.968500D-02
      1.962000D+00           1.379770D-01
      4.446000D-01           4.781480D-01
      1.220000D-01           5.012400D-01
S   1   1.00
      1.220000D-01           1.000000D+00
P   1   1.00
      7.270000D-01           1.0000000
****
H     4
S   4   1.00
      1.301000D+01           1.968500D-02
      1.962000D+00           1.379770D-01
      4.446000D-01           4.781480D-01
      1.220000D-01           5.012400D-01
S   1   1.00
      1.220000D-01           1.000000D+00
P   1   1.00
      7.270000D-01           1.0000000
****
H     5
S   4   1.00
      1.301000D+01           1.968500D-02
      1.962000D+00           1.379770D-01
      4.446000D-01           4.781480D-01
      1.220000D-01           5.012400D-01
S   1   1.00
      1.220000D-01           1.000000D+00
P   1   1.00
      7.270000D-01           1.0000000
****
H     6
S   4   1.00
      1.301000D+01           1.968500D-02
      1.962000D+00           1.379770D-01
      4.446000D-01           4.781480D-01
      1.220000D-01           5.012400D-01
S   1   1.00
      1.220000D-01           1.000000D+00
P   1   1.00
      7.270000D-01           1.0000000
****
H     7
S    4   1.00
      1.301000D+01           1.968500D-02
      1.962000D+00           1.379770D-01
      4.446000D-01           4.781480D-01
      1.220000D-01           5.012400D-01
S    1   1.00
      1.220000D-01           1.000000D+00
S    1   1.00
      0.0297400              1.0000000
P    1   1.00
      7.270000D-01           1.0000000
P    1   1.00
      0.1410000              1.0000000
****
$end
--------------------------------------------------------------

             Standard Nuclear Orientation (Angstroms)
    I     Atom           X                Y                Z
 ----------------------------------------------------------------
    1      C       0.0000000000     0.0000000000     0.8417902855
    2      C       0.0000000000     0.0000000000    -0.4872097145
    3      H       0.9623488518     0.0000000000     1.3363703075
    4      H       0.9623489048     0.0000000000    -0.9817896925
    5      H      -0.9623488518     0.0000000000     1.3363703075
    6      H      -0.9623489048     0.0000000000    -0.9817896925
    7      H       0.0000000000     0.0000000000    -2.8366446560
 ----------------------------------------------------------------

   13     -78.5039091014      3.39E-09 Convergence criterion met
 Total energy in the final basis set = -78.50390910
  Term symbol:  1 (1) B2                                    R^2 =  3.66008e-09
  Excitation energy:                                               0.698713 eV
  Term symbol:  2 (1) B2                                    R^2 =  2.89425e-09
  Excitation energy:                                               0.845317 eV
  Term symbol:  3 (1) B2                                    R^2 =  1.07674e-08
  Excitation energy:                                               1.453929 eV
  Term symbol:  4 (1) B2                                    R^2 =  1.50825e-08
  Excitation energy:                                               1.674119 eV
  Term symbol:  5 (1) B2                                    R^2 =  6.44346e-08
  Excitation energy:                                               2.632082 eV
  Term symbol:  6 (1) B2                                    R^2 =  3.27126e-08
  Excitation energy:                                               2.776557 eV
  Term symbol:  7 (1) B2                                    R^2 =  8.52338e-08
  Excitation energy:                                               3.567803 eV
  Term symbol:  8 (1) B2                                    R^2 =  5.99602e-08
  Excitation energy:                                               5.054593 eV
  Term symbol:  9 (1) B2                                    R^2 =  4.11028e-09
  Excitation energy:                                               5.661155 eV
  Excited state 10 (singlet, B2)                                   [converged]
  Term symbol:  10 (1) B2                                   R^2 =  1.20192e-07
  Excitation energy:                                               5.728244 eV
  Excited state 11 (singlet, B2)                                   [converged]
  Term symbol:  11 (1) B2                                   R^2 =  6.77079e-08
  Excitation energy:                                               5.864569 eV
  Excited state 12 (singlet, B2)                                   [converged]
  Term symbol:  12 (1) B2                                   R^2 =  6.21841e-10
  Excitation energy:                                               5.979453 eV
  Excited state 13 (singlet, B2)                                   [converged]
  Term symbol:  13 (1) B2                                   R^2 =  2.38456e-10
  Excitation energy:                                               6.040170 eV
  Excited state 14 (singlet, B2)                                   [converged]
  Term symbol:  14 (1) B2                                   R^2 =  6.46867e-08
  Excitation energy:                                               6.087971 eV
  Excited state 15 (singlet, B2)                                   [converged]
  Term symbol:  15 (1) B2                                   R^2 =  1.49344e-10
  Excitation energy:                                               6.362919 eV
  Excited state 16 (singlet, B2)                                   [converged]
  Term symbol:  16 (1) B2                                   R^2 =  1.12543e-07
  Excitation energy:                                               6.629502 eV
  Excited state 17 (singlet, B2)                                   [converged]
  Excitation energy:                                               1.161561 eV
  Excitation energy:                                               1.056633 eV
  Excitation energy:                                               0.890835 eV
  Excitation energy:                                               0.777761 eV
  Excitation energy:                                               0.597409 eV
  Excitation energy:                                               0.439780 eV
  Excitation energy:                                               0.307720 eV
  Excitation energy:                                               0.209604 eV
  Excitation energy:                                               0.116469 eV
  Excitation energy:                                               0.073251 eV
  Excitation energy:                                               0.069382 eV
  Excitation energy:                                               7.535084 eV
  Excitation energy:                                               7.388481 eV
  Excitation energy:                                               6.779869 eV
  Excitation energy:                                               6.559678 eV
  Excitation energy:                                               5.601715 eV
  Excitation energy:                                               5.457241 eV
  Excitation energy:                                               4.665994 eV
  Excitation energy:                                               3.179204 eV
  Excitation energy:                                               2.572642 eV
  Excitation energy:                                               2.505554 eV
  Excitation energy:                                               2.369228 eV
  Excitation energy:                                               2.254344 eV
  Excitation energy:                                               2.193627 eV
  Excitation energy:                                               2.145826 eV
  Excitation energy:                                               1.870878 eV
  Excitation energy:                                               1.604296 eV
  Excitation energy:                                               1.483236 eV
  Excitation energy:                                               1.435656 eV
  Excitation energy:                                               1.330727 eV
  Excitation energy:                                               1.164930 eV
  Excitation energy:                                               1.051855 eV
  Excitation energy:                                               0.871504 eV
  Excitation energy:                                               0.713874 eV
  Excitation energy:                                               0.581814 eV
  Excitation energy:                                               0.483699 eV
  Excitation energy:                                               0.390564 eV
  Excitation energy:                                               0.347345 eV
  Excitation energy:                                               0.343477 eV
  Excitation energy:                                               0.274095 eV

             Orbital Energies (a.u.) and Symmetries
 --------------------------------------------------------------

 Alpha MOs, Restricted
 -- Occupied --
-11.078 -11.073  -0.885  -0.623  -0.504  -0.409  -0.356  -0.222
  1 A1    2 A1    3 A1    4 A1    1 B1    5 A1    2 B1    1 B2
 -0.039
  6 A1

 Beta MOs, Restricted
 -- Occupied --
-11.078 -11.073  -0.885  -0.623  -0.504  -0.409  -0.356  -0.222
  1 A1    2 A1    3 A1    4 A1    1 B1    5 A1    2 B1    1 B2
 -0.039
  6 A1

          Ground-State Mulliken Net Atomic Charges

     Atom                 Charge (a.u.)
  ----------------------------------------
      1 C                    -1.308325
      2 C                     0.564206
      3 H                    -0.011203
      4 H                     0.051853
      5 H                    -0.011203
      6 H                     0.051853
      7 H                    -0.337182
  ----------------------------------------
  Sum of atomic charges =    -1.000000

                    Cartesian Multipole Moments
 -----------------------------------------------------------------
    Charge (ESU x 10^10)
                -4.8032
    Dipole Moment (Debye)
         X      -0.0000      Y       0.0000      Z      12.7184
       Tot      12.7184
    Quadrupole Moments (Debye-Ang)
        XX     -20.5484     XY      -0.0000     YY     -24.9183
        XZ      -0.0000     YZ       0.0000     ZZ     -65.7402

 Total job time:  446.60s(wall), 1859.87s(cpu)
        *  Thank you very much for using Q-Chem.  Have a nice day.  *
