 Q-Chem 5.4 (devel), Q-Chem, Inc., Pleasanton, CA (2021)
 Q-Chem 5.4.1 for Intel X86 EM64T Linux

User input:
--------------------------------------------------------------
$molecule
-1 1
C        -0.6645000000    0.0000000000    1.1619088658
C         0.6645000000    0.0000000000    1.1619088658
H        -1.1590800000    0.0000000000    0.1995598658
H         1.1590800000    0.0000000000    0.1995598658
H        -1.1590800000    0.0000000000    2.1242568658
H         1.1590800000    0.0000000000    2.1242568658
O         0.0000000000    0.0000000000   -1.5841414040
H         0.0000000000    0.0000000000   -2.5471307683
$end
$rem
   METHOD adc(2)
   BASIS gen
   PURECART 11
   EE_STATES [0,0,10,0]
   scf_convergence 8
   ADC_DAVIDSON_MAXITER 120
   ADC_DAVIDSON_MAXSUBSPACE 200
   adc_nguess_singles 100
   THRESH 14
   S2THRESH 14
   adc_davidson_conv 5
   adc_davidson_thresh 14
   THREADS 10
   MEM_TOTAL 95000
   STATE_ANALYSIS TRUE
$end
$basis
C 1
S   9   1.00
      6.665000D+03           6.920000D-04
      1.000000D+03           5.329000D-03
      2.280000D+02           2.707700D-02
      6.471000D+01           1.017180D-01
      2.106000D+01           2.747400D-01
      7.495000D+00           4.485640D-01
      2.797000D+00           2.850740D-01
      5.215000D-01           1.520400D-02
      1.596000D-01          -3.191000D-03
S   9   1.00
      6.665000D+03          -1.460000D-04
      1.000000D+03          -1.154000D-03
      2.280000D+02          -5.725000D-03
      6.471000D+01          -2.331200D-02
      2.106000D+01          -6.395500D-02
      7.495000D+00          -1.499810D-01
      2.797000D+00          -1.272620D-01
      5.215000D-01           5.445290D-01
      1.596000D-01           5.804960D-01
S   1   1.00
      1.596000D-01           1.000000D+00
S   1   1.00
      0.0469000              1.0000000
P   4   1.00
      9.439000D+00           3.810900D-02
      2.002000D+00           2.094800D-01
      5.456000D-01           5.085570D-01
      1.517000D-01           4.688420D-01
P   1   1.00
      1.517000D-01           1.000000D+00
P   1   1.00
      0.0570024      1.0000000
P   1   1.00
      0.0285012      1.0000000
D   1   1.00
      5.500000D-01           1.0000000
****
C 2
S   9   1.00
      6.665000D+03           6.920000D-04
      1.000000D+03           5.329000D-03
      2.280000D+02           2.707700D-02
      6.471000D+01           1.017180D-01
      2.106000D+01           2.747400D-01
      7.495000D+00           4.485640D-01
      2.797000D+00           2.850740D-01
      5.215000D-01           1.520400D-02
      1.596000D-01          -3.191000D-03
S   9   1.00
      6.665000D+03          -1.460000D-04
      1.000000D+03          -1.154000D-03
      2.280000D+02          -5.725000D-03
      6.471000D+01          -2.331200D-02
      2.106000D+01          -6.395500D-02
      7.495000D+00          -1.499810D-01
      2.797000D+00          -1.272620D-01
      5.215000D-01           5.445290D-01
      1.596000D-01           5.804960D-01
S   1   1.00
      1.596000D-01           1.000000D+00
S   1   1.00
      0.0469000              1.0000000
P   4   1.00
      9.439000D+00           3.810900D-02
      2.002000D+00           2.094800D-01
      5.456000D-01           5.085570D-01
      1.517000D-01           4.688420D-01
P   1   1.00
      1.517000D-01           1.000000D+00
P   1   1.00
      0.0570024      1.0000000
P   1   1.00
      0.0285012      1.0000000
D   1   1.00
      5.500000D-01           1.0000000
****
H 3
cc-pVDZ
****
H 4
cc-pVDZ
****
H 5
cc-pVDZ
****
H 6
cc-pVDZ
****
O 7
aug-cc-pVDZ
****
H 8
cc-pVDZ
****
$end
--------------------------------------------------------------

             Standard Nuclear Orientation (Angstroms)
    I     Atom           X                Y                Z
 ----------------------------------------------------------------
    1      C      -0.6645000000    -0.0000000000     1.0270977517
    2      C       0.6645000000     0.0000000000     1.0270977517
    3      H      -1.1590800000    -0.0000000000     0.0647487517
    4      H       1.1590800000     0.0000000000     0.0647487517
    5      H      -1.1590800000    -0.0000000000     1.9894457517
    6      H       1.1590800000     0.0000000000     1.9894457517
    7      O       0.0000000000    -0.0000000000    -1.7189525181
    8      H       0.0000000000    -0.0000000000    -2.6819418824
 ----------------------------------------------------------------

   13    -153.4411908753      2.62E-09 Convergence criterion met
 Total energy in the final basis set = -153.44119088
  Excited state 1 (singlet, B1)                                    [converged]
  Term symbol:  1 (1) B1                                    R^2 =  1.77638e-09
  Excitation energy:                                               2.362228 eV
  Excited state 2 (singlet, B1)                                    [converged]
  Term symbol:  2 (1) B1                                    R^2 =  8.69742e-10
  Excitation energy:                                               2.637997 eV
  Excited state 3 (singlet, B1)                                    [converged]
  Term symbol:  3 (1) B1                                    R^2 =  4.28226e-10
  Excitation energy:                                               2.842290 eV
  Excited state 4 (singlet, B1)                                    [converged]
  Term symbol:  4 (1) B1                                    R^2 =  5.48574e-09
  Excitation energy:                                               3.689606 eV
  Excited state 5 (singlet, B1)                                    [converged]
  Term symbol:  5 (1) B1                                    R^2 =  3.45604e-09
  Excitation energy:                                               4.566337 eV
  Excited state 6 (singlet, B1)                                    [converged]
  Term symbol:  6 (1) B1                                    R^2 =  9.42738e-09
  Excitation energy:                                               4.813191 eV
  Excited state 7 (singlet, B1)                                    [converged]
  Term symbol:  7 (1) B1                                    R^2 =  1.84331e-07
  Excitation energy:                                               6.272693 eV
  Excited state 8 (singlet, B1)                                    [converged]
  Term symbol:  8 (1) B1                                    R^2 =  8.03562e-08
  Excitation energy:                                               6.890557 eV
  Excited state 9 (singlet, B1)                                    [converged]
  Term symbol:  9 (1) B1                                    R^2 =  2.03863e-06
  Excitation energy:                                               6.929977 eV
  Excited state 10 (singlet, B1)                                    [converged]
  Term symbol:  10 (1) B1                                   R^2 =  2.53558e-06
  Excitation energy:                                               7.047617 eV

             Orbital Energies (a.u.) and Symmetries
 --------------------------------------------------------------

 Alpha MOs, Restricted
 -- Occupied --
-20.213 -11.049 -11.047  -0.930  -0.854  -0.598  -0.473  -0.384
  1 A1    2 A1    1 B1    3 A1    4 A1    2 B1    5 A1    6 A1
 -0.328  -0.271  -0.194  -0.130  -0.129
  3 B1    7 A1    1 B2    4 B1    2 B2

 Beta MOs, Restricted
 -- Occupied --
-20.213 -11.049 -11.047  -0.930  -0.854  -0.598  -0.473  -0.384
  1 A1    2 A1    1 B1    3 A1    4 A1    2 B1    5 A1    6 A1
 -0.328  -0.271  -0.194  -0.130  -0.129
  3 B1    7 A1    1 B2    4 B1    2 B2

          Ground-State Mulliken Net Atomic Charges

     Atom                 Charge (a.u.)
  ----------------------------------------
      1 C                    -0.192170
      2 C                    -0.192170
      3 H                     0.180270
      4 H                     0.180270
      5 H                     0.013466
      6 H                     0.013466
      7 O                    -1.072685
      8 H                     0.069554
  ----------------------------------------
  Sum of atomic charges =    -1.000000

                    Cartesian Multipole Moments
 -----------------------------------------------------------------
    Charge (ESU x 10^10)
                -4.8032
    Dipole Moment (Debye)
         X       0.0000      Y      -0.0000      Z       5.2890
       Tot       5.2890
    Quadrupole Moments (Debye-Ang)
        XX     -23.6677     XY       0.0000     YY     -26.4941
        XZ       0.0000     YZ      -0.0000     ZZ     -32.8940

 Total job time:  180.10s(wall), 310.18s(cpu)
        *  Thank you very much for using Q-Chem.  Have a nice day.  *
