 Q-Chem 5.4 (devel), Q-Chem, Inc., Pleasanton, CA (2021)
 Q-Chem 5.4.1 for Intel X86 EM64T Linux

User input:
--------------------------------------------------------------
$comment
	H_Ethylene CAP-ADC(2) 10z
	Basis: C: jun-TZ+4p1d, H: TZ
$end

$molecule
-1 1
C        -0.6645000000    0.0000000000   -0.1764707059
C         0.6645000000    0.0000000000   -0.1764707059
H        -1.1590800000    0.0000000000    0.7858782941
H         1.1590800000    0.0000000000    0.7858782941
H        -1.1590800000    0.0000000000   -1.1388187059
H         1.1590800000    0.0000000000   -1.1388187059
H         0.0000000000    0.0000000000  -10.1764707059
$end

$rem
	basis gen
	method adc(3)
        EE_STATES [0,10,0,0]
	scf_convergence 8
	thresh 14
	adc_cap 1
	cap_type 2
	cap_x 1500
	cap_x_end 5000
	cap_x_step 500
	xc_grid 000250000974
	adc_print 3
	adc_davidson_conv 5
	adc_nguess_singles 100
	adc_nguess_doubles 50
	adc_davidson_maxsubspace 400
	adc_davidson_maxiter 40
	adc_davidson_thresh 14
	mem_total 95000
	threads 12
$end
$basis
C     1
S    8   1.00
   8236.0000000              0.0005310
   1235.0000000              0.0041080
    280.8000000              0.0210870
     79.2700000              0.0818530
     25.5900000              0.2348170
      8.9970000              0.4344010
      3.3190000              0.3461290
      0.3643000             -0.0089830
S    1   1.00
      0.9059000              1.0000000
S    8   1.00
   8236.0000000             -0.0001130
   1235.0000000             -0.0008780
    280.8000000             -0.0045400
     79.2700000             -0.0181330
     25.5900000             -0.0557600
      8.9970000             -0.1268950
      3.3190000             -0.1703520
      0.3643000              0.5986840
S    1   1.00
      0.1285000              1.0000000
S    1   1.00
      0.0440200              1.0000000
P    3   1.00
     18.7100000              0.0140310
      4.1330000              0.0868660
      1.2000000              0.2902160
P    1   1.00
      0.3827000              1.0000000
P    1   1.00
      0.1209000              1.0000000
P    1   1.00
      0.0356900              1.0000000
P    1   1.0
      0.0237933 1.0
P    1   1.0
      0.0158622 1.0
P    1   1.0
      0.0105748 1.0
P    1   1.0
      0.0070498 1.0
D    1   1.00
      1.0970000              1.0000000
D    1   1.00
      0.3180000              1.0000000
D    1   1.00
      0.1000000              1.0000000
D    1   1.00
      0.0500000 1.0
F    1   1.00
      0.7610000              1.0000000
****
C     2
S    8   1.00
   8236.0000000              0.0005310
   1235.0000000              0.0041080
    280.8000000              0.0210870
     79.2700000              0.0818530
     25.5900000              0.2348170
      8.9970000              0.4344010
      3.3190000              0.3461290
      0.3643000             -0.0089830
S    1   1.00
      0.9059000              1.0000000
S    8   1.00
   8236.0000000             -0.0001130
   1235.0000000             -0.0008780
    280.8000000             -0.0045400
     79.2700000             -0.0181330
     25.5900000             -0.0557600
      8.9970000             -0.1268950
      3.3190000             -0.1703520
      0.3643000              0.5986840
S    1   1.00
      0.1285000              1.0000000
S    1   1.00
      0.0440200              1.0000000
P    3   1.00
     18.7100000              0.0140310
      4.1330000              0.0868660
      1.2000000              0.2902160
P    1   1.00
      0.3827000              1.0000000
P    1   1.00
      0.1209000              1.0000000
P    1   1.00
      0.0356900              1.0000000
P    1   1.0
      0.0237933 1.0
P    1   1.0
      0.0158622 1.0
P    1   1.0
      0.0105748 1.0
P    1   1.0
      0.0070498 1.0
D    1   1.00
      1.0970000              1.0000000
D    1   1.00
      0.3180000              1.0000000
D    1   1.00
      0.1000000              1.0000000
D    1   1.00
      0.0500000 1.0
F    1   1.00
      0.7610000              1.0000000
****
H     3
cc-pVTZ
****
H     4
cc-pVTZ
****
H     5
cc-pVTZ
****
H     6
cc-pVTZ
****
H     7
aug-cc-pVTZ
****
$end
--------------------------------------------------------------

             Standard Nuclear Orientation (Angstroms)
    I     Atom           X                Y                Z
 ----------------------------------------------------------------
    1      C      -0.6645000000     0.0000000000    -0.5882351765
    2      C       0.6645000000    -0.0000000000    -0.5882351765
    3      H      -1.1590800000     0.0000000000    -1.5505841765
    4      H       1.1590800000    -0.0000000000    -1.5505841765
    5      H      -1.1590800000     0.0000000000     0.3741128235
    6      H       1.1590800000    -0.0000000000     0.3741128235
    7      H       0.0000000000     0.0000000000     9.4117648235
 ----------------------------------------------------------------

   11     -78.5333944792      5.02E-09 Convergence criterion met
 Total energy in the final basis set = -78.53339448
  Excited state 1 (singlet, A2)                                    [converged]
  Term symbol:  1 (1) A2                                    R^2 =  6.22246e-13
  Excitation energy:                                               0.658831 eV
  Excited state 2 (singlet, A2)                                    [converged]
  Term symbol:  2 (1) A2                                    R^2 =  5.17725e-12
  Excitation energy:                                               1.352461 eV
  Excited state 3 (singlet, A2)                                    [converged]
  Term symbol:  3 (1) A2                                    R^2 =  4.59479e-11
  Excitation energy:                                               2.279230 eV
  Excited state 4 (singlet, A2)                                    [converged]
  Term symbol:  4 (1) A2                                    R^2 =  1.66915e-10
  Excitation energy:                                               3.143456 eV
  Excited state 5 (singlet, A2)                                    [converged]
  Term symbol:  5 (1) A2                                    R^2 =  1.96165e-07
  Excitation energy:                                               4.771210 eV
  Excited state 6 (singlet, A2)                                    [converged]
  Term symbol:  6 (1) A2                                    R^2 =  1.14655e-07
  Excitation energy:                                               4.889954 eV
  Excited state 7 (singlet, A2)                                    [converged]
  Term symbol:  7 (1) A2                                    R^2 =  1.38483e-09
  Excitation energy:                                               5.321864 eV
  Excited state 8 (singlet, A2)                                    [converged]
  Term symbol:  8 (1) A2                                    R^2 =  8.66435e-07
  Excitation energy:                                               5.456860 eV
  Excited state 9 (singlet, A2)                                    [converged]
  Term symbol:  9 (1) A2                                    R^2 =  6.37869e-06
  Excitation energy:                                               6.637190 eV
  Excited state 10 (singlet, A2)                                    [converged]
  Term symbol:  10 (1) A2                                   R^2 =  4.58007e-06
  Excitation energy:                                               7.101194 eV
  Excitation energy:                                               0.693630 eV
  Excitation energy:                                               1.620399 eV
  Excitation energy:                                               0.926769 eV
  Excitation energy:                                               2.484625 eV
  Excitation energy:                                               1.790995 eV
  Excitation energy:                                               0.864226 eV
  Excitation energy:                                               4.112379 eV
  Excitation energy:                                               3.418749 eV
  Excitation energy:                                               2.491980 eV
  Excitation energy:                                               1.627754 eV
  Excitation energy:                                               4.231123 eV
  Excitation energy:                                               3.537492 eV
  Excitation energy:                                               2.610724 eV
  Excitation energy:                                               1.746498 eV
  Excitation energy:                                               0.118744 eV
  Excitation energy:                                               4.663033 eV
  Excitation energy:                                               3.969403 eV
  Excitation energy:                                               3.042634 eV
  Excitation energy:                                               2.178408 eV
  Excitation energy:                                               0.550654 eV
  Excitation energy:                                               0.431910 eV
  Excitation energy:                                               4.798029 eV
  Excitation energy:                                               4.104399 eV
  Excitation energy:                                               3.177630 eV
  Excitation energy:                                               2.313404 eV
  Excitation energy:                                               0.685650 eV
  Excitation energy:                                               0.566907 eV
  Excitation energy:                                               0.134996 eV
  Excitation energy:                                               5.978359 eV
  Excitation energy:                                               5.284729 eV
  Excitation energy:                                               4.357960 eV
  Excitation energy:                                               3.493734 eV
  Excitation energy:                                               1.865980 eV
  Excitation energy:                                               1.747236 eV
  Excitation energy:                                               1.315326 eV
  Excitation energy:                                               1.180330 eV
  Excitation energy:                                               6.442363 eV
  Excitation energy:                                               5.748732 eV
  Excitation energy:                                               4.821964 eV
  Excitation energy:                                               3.957738 eV
  Excitation energy:                                               2.329984 eV
  Excitation energy:                                               2.211240 eV
  Excitation energy:                                               1.779330 eV
  Excitation energy:                                               1.644334 eV
  Excitation energy:                                               0.464004 eV

             Orbital Energies (a.u.) and Symmetries
 --------------------------------------------------------------

 Alpha MOs, Restricted
 -- Occupied --
-11.175 -11.173  -0.986  -0.728  -0.607  -0.515  -0.463  -0.324
  1 A1    1 B1    2 A1    2 B1    3 A1    4 A1    3 B1    1 B2
 -0.029
  5 A1

 Beta MOs, Restricted
 -- Occupied --
-11.175 -11.173  -0.986  -0.728  -0.607  -0.515  -0.463  -0.324
  1 A1    1 B1    2 A1    2 B1    3 A1    4 A1    3 B1    1 B2
 -0.029
  5 A1

          Ground-State Mulliken Net Atomic Charges

     Atom                 Charge (a.u.)
  ----------------------------------------
      1 C                    -0.440620
      2 C                    -0.440620
      3 H                     0.169526
      4 H                     0.169526
      5 H                     0.185057
      6 H                     0.185057
      7 H                    -0.827926
  ----------------------------------------
  Sum of atomic charges =    -1.000000

                    Cartesian Multipole Moments
 -----------------------------------------------------------------
    Charge (ESU x 10^10)
                -4.8032
    Dipole Moment (Debye)
         X       0.0000      Y      -0.0000      Z     -40.6507
       Tot      40.6507
    Quadrupole Moments (Debye-Ang)
        XX     -31.4995     XY      -0.0000     YY     -31.5927
        XZ      -0.0000     YZ       0.0000     ZZ    -424.2422

 Total job time:  679.57s(wall), 4368.38s(cpu)
        *  Thank you very much for using Q-Chem.  Have a nice day.  *
