                         Program Version 5.0.1 -  RELEASE  -
|  1> !HF cc-pvdz freq
|  2> * xyz 0 2
|  3> O 0.0 0.0 0.0
|  4> H 0.0 0.0 0.9673
|  5> *
|  6>
|  7>                          ****END OF INPUT****

CARTESIAN COORDINATES (ANGSTROEM)
---------------------------------
  O      0.000000    0.000000    0.000000
  H      0.000000    0.000000    0.967300

 Total Charge           Charge          ....    0
 Multiplicity           Mult            ....    2
 Number of Electrons    NEL             ....    9
 Basis Dimension        Dim             ....   19

ORBITAL ENERGIES
----------------
                 SPIN UP ORBITALS
  NO   OCC          E(Eh)            E(eV)
   0   1.0000     -20.626048      -561.2633
   1   1.0000      -1.375157       -37.4199
   2   1.0000      -0.667220       -18.1560
   3   1.0000      -0.638698       -17.3799
   4   1.0000      -0.545090       -14.8327
   5   0.0000       0.185258         5.0411
   6   0.0000       0.795697        21.6520
   7   0.0000       1.101794        29.9813
   8   0.0000       1.147173        31.2162
   9   0.0000       1.163523        31.6611

                 SPIN DOWN ORBITALS
  NO   OCC          E(Eh)            E(eV)
   0   1.0000     -20.586110      -560.1765
   1   1.0000      -1.219681       -33.1892
   2   1.0000      -0.624245       -16.9866
   3   1.0000      -0.499290       -13.5864
   4   0.0000       0.137576         3.7436
   5   0.0000       0.197027         5.3614
   6   0.0000       0.806925        21.9575
   7   0.0000       1.169276        31.8176
   8   0.0000       1.187505        32.3137

MULLIKEN ATOMIC CHARGES AND SPIN POPULATIONS
--------------------------------------------
   0 O :   -0.183263    1.048146
   1 H :    0.183263   -0.048146
Sum of atomic charges         :   -0.0000000

LOEWDIN ATOMIC CHARGES AND SPIN POPULATIONS
-------------------------------------------
   0 O :   -0.035348    1.005915
   1 H :    0.035348   -0.005915

  Mayer bond orders larger than 0.100000
B(  0-O ,  1-H ) :   1.0110

FINAL SINGLE POINT ENERGY       -75.393896759691

DIPOLE MOMENT
-------------
                                X             Y             Z
Electronic contribution:     -0.00000      -0.00000      -0.14412
Nuclear contribution   :      0.00000       0.00000       0.85286
                        -----------------------------------------
Total Dipole Moment    :     -0.00000      -0.00000       0.70875
                        -----------------------------------------
Magnitude (a.u.)       :      0.70875
Magnitude (Debye)      :      1.80149

VIBRATIONAL FREQUENCIES
-----------------------

Scaling factor for frequencies =  1.000000000  (already applied!)

   0:         0.00 cm**-1
   1:         0.00 cm**-1
   2:         0.00 cm**-1
   3:         0.00 cm**-1
   4:         0.00 cm**-1
   5:      3881.89 cm**-1

IR SPECTRUM
-----------

 Mode   freq       eps      Int      T**2         TX        TY        TZ
       cm**-1   L/(mol*cm) km/mol    a.u.
----------------------------------------------------------------------------
  5:   3881.89   0.005076   25.65  0.000408  (-0.000000 -0.000000 -0.020201)

--------------------------
THERMOCHEMISTRY AT 298.15K
--------------------------

Temperature         ... 298.15 K
Pressure            ... 1.00 atm
Total Mass          ... 17.01 AMU
The molecule is recognized as being linear

Throughout the following assumptions are being made:
  (1) The electronic state is orbitally nondegenerate
      but the spin degeneracy is treated
  (2) There are no thermally accessible electronically excited states
  (3) Hindered rotations indicated by low frequency modes are not
      treated as such but are treated as vibrations and this may
      cause some error
  (4) All equations used are the standard statistical mechanics
      equations for an ideal gas
  (5) All vibrations are strictly harmonic

freq.    3881.89  E(vib)   ...       0.00

------------
INNER ENERGY
------------

The inner energy is: U= E(el) + E(ZPE) + E(vib) + E(rot) + E(trans)
    E(el)   - is the total energy from the electronic structure calculation
              = E(kin-el) + E(nuc-el) + E(el-el) + E(nuc-nuc)
    E(ZPE)  - the the zero temperature vibrational energy from the frequency calculation
    E(vib)  - the the finite temperature correction to E(ZPE) due to population
              of excited vibrational states
    E(rot)  - is the rotational thermal energy
    E(trans)- is the translational thermal energy

Summary of contributions to the inner energy U:
Electronic energy                ...    -75.39389676 Eh
Zero point energy                ...      0.00884360 Eh       5.55 kcal/mol
Thermal vibrational correction   ...      0.00000000 Eh       0.00 kcal/mol
Thermal rotational correction    ...      0.00094418 Eh       0.59 kcal/mol
Thermal translational correction ...      0.00141627 Eh       0.89 kcal/mol
-----------------------------------------------------------------------
Total thermal energy                    -75.38269271 Eh

Summary of corrections to the electronic energy:
(perhaps to be used in another calculation)
Total thermal correction                  0.00236045 Eh       1.48 kcal/mol
Non-thermal (ZPE) correction              0.00884360 Eh       5.55 kcal/mol
-----------------------------------------------------------------------
Total correction                          0.01120405 Eh       7.03 kcal/mol

--------
ENTHALPY
--------

The enthalpy is H = U + kB*T
                kB is Boltzmann's constant
Total free energy                 ...    -75.38269271 Eh
Thermal Enthalpy correction       ...      0.00094421 Eh       0.59 kcal/mol
-----------------------------------------------------------------------
Total Enthalpy                    ...    -75.38174850 Eh

Note: Rotational entropy computed according to Herzberg
Infrared and Raman Spectra, Chapter V,1, Van Nostrand Reinhold, 1945
Point Group:  Cinfv, Symmetry Number:   1
Rotational constants in cm-1:     0.000000    18.999793    18.999793

Vibrational entropy computed according to the QRRHO of S. Grimme
Chem.Eur.J. 2012 18 9955

-------
ENTROPY
-------

The entropy contributions are T*S = T*(S(el)+S(vib)+S(rot)+S(trans))
     S(el)   - electronic entropy
     S(vib)  - vibrational entropy
     S(rot)  - rotational entropy
     S(trans)- translational entropy
The entropies will be listed as multiplied by the temperature to get
units of energy

Electronic entropy                ...      0.00065446 Eh      0.41 kcal/mol
Vibrational entropy               ...     -0.00000000 Eh     -0.00 kcal/mol
Rotational entropy                ...      0.00320019 Eh      2.01 kcal/mol
Translational entropy             ...      0.01636225 Eh     10.27 kcal/mol
-----------------------------------------------------------------------
Final entropy term                ...      0.02021690 Eh     12.69 kcal/mol

-------------------
GIBBS FREE ENERGY
-------------------

The Gibbs free energy is G = H - T*S

Total enthalpy                    ...    -75.38174850 Eh
Total entropy correction          ...     -0.02021690 Eh    -12.69 kcal/mol
-----------------------------------------------------------------------
Final Gibbs free energy         ...    -75.40196540 Eh

For completeness - the Gibbs free energy minus the electronic energy
G-E(el)                           ...     -0.00806864 Eh     -5.06 kcal/mol

                             ****ORCA TERMINATED NORMALLY****
TOTAL RUN TIME: 0 days 0 hours 0 minutes 1 seconds 565 msec
