 Q-Chem 5.4 (devel), Q-Chem, Inc., Pleasanton, CA (2021)
 Q-Chem 5.4.1 for Intel X86 EM64T Linux

User input:
--------------------------------------------------------------
$molecule
-1 1
C         0.0000000000    0.0000000000    0.8417902907
C         0.0000000000    0.0000000000   -0.4872097093
H         0.9623488518    0.0000000000    1.3363703127
H         0.9623489048    0.0000000000   -0.9817896873
H        -0.9623488518    0.0000000000    1.3363703127
H        -0.9623489048    0.0000000000   -0.9817896873
H         0.0000000000    0.0000000000   -2.8366446508
$end

$rem
   METHOD adc(2)
   BASIS gen
   PURECART 11
   EE_STATES [0,0,0,10]
   scf_convergence 8
   ADC_DAVIDSON_MAXITER 120
   ADC_DAVIDSON_MAXSUBSPACE 200
   adc_nguess_singles 100
   THRESH 14
   S2THRESH 14
   adc_davidson_conv 5
   adc_davidson_thresh 14
   THREADS 10
   MEM_TOTAL 95000
   STATE_ANALYSIS TRUE
$end
$basis
C 1
S   9   1.00
      6.665000D+03           6.920000D-04
      1.000000D+03           5.329000D-03
      2.280000D+02           2.707700D-02
      6.471000D+01           1.017180D-01
      2.106000D+01           2.747400D-01
      7.495000D+00           4.485640D-01
      2.797000D+00           2.850740D-01
      5.215000D-01           1.520400D-02
      1.596000D-01          -3.191000D-03
S   9   1.00
      6.665000D+03          -1.460000D-04
      1.000000D+03          -1.154000D-03
      2.280000D+02          -5.725000D-03
      6.471000D+01          -2.331200D-02
      2.106000D+01          -6.395500D-02
      7.495000D+00          -1.499810D-01
      2.797000D+00          -1.272620D-01
      5.215000D-01           5.445290D-01
      1.596000D-01           5.804960D-01
S   1   1.00
      1.596000D-01           1.000000D+00
S   1   1.00
      0.0469000              1.0000000
P   4   1.00
      9.439000D+00           3.810900D-02
      2.002000D+00           2.094800D-01
      5.456000D-01           5.085570D-01
      1.517000D-01           4.688420D-01
P   1   1.00
      1.517000D-01           1.000000D+00
P   1   1.00
      0.0994478      1.0000000
P   1   1.00
      0.0497239      1.0000000
D   1   1.00
      5.500000D-01           1.0000000
****
C 2
S   9   1.00
      6.665000D+03           6.920000D-04
      1.000000D+03           5.329000D-03
      2.280000D+02           2.707700D-02
      6.471000D+01           1.017180D-01
      2.106000D+01           2.747400D-01
      7.495000D+00           4.485640D-01
      2.797000D+00           2.850740D-01
      5.215000D-01           1.520400D-02
      1.596000D-01          -3.191000D-03
S   9   1.00
      6.665000D+03          -1.460000D-04
      1.000000D+03          -1.154000D-03
      2.280000D+02          -5.725000D-03
      6.471000D+01          -2.331200D-02
      2.106000D+01          -6.395500D-02
      7.495000D+00          -1.499810D-01
      2.797000D+00          -1.272620D-01
      5.215000D-01           5.445290D-01
      1.596000D-01           5.804960D-01
S   1   1.00
      1.596000D-01           1.000000D+00
S   1   1.00
      0.0469000              1.0000000
P   4   1.00
      9.439000D+00           3.810900D-02
      2.002000D+00           2.094800D-01
      5.456000D-01           5.085570D-01
      1.517000D-01           4.688420D-01
P   1   1.00
      1.517000D-01           1.000000D+00
P   1   1.00
      0.0994478      1.0000000
P   1   1.00
      0.0497239      1.0000000
D   1   1.00
      5.500000D-01           1.0000000
****
H 3
cc-pVDZ
****
H 4
cc-pVDZ
****
H 5
cc-pVDZ
****
H 6
cc-pVDZ
****
H 7
aug-cc-pVDZ
****
$end
--------------------------------------------------------------

             Standard Nuclear Orientation (Angstroms)
    I     Atom           X                Y                Z
 ----------------------------------------------------------------
    1      C       0.0000000000     0.0000000000     0.8417902855
    2      C       0.0000000000     0.0000000000    -0.4872097145
    3      H       0.9623488518     0.0000000000     1.3363703075
    4      H       0.9623489048     0.0000000000    -0.9817896925
    5      H      -0.9623488518     0.0000000000     1.3363703075
    6      H      -0.9623489048     0.0000000000    -0.9817896925
    7      H       0.0000000000     0.0000000000    -2.8366446560
 ----------------------------------------------------------------

   13     -78.4960064440      1.86E-09 Convergence criterion met
 Total energy in the final basis set = -78.49600644
  Excited state 1 (singlet, B2)                                    [converged]
  Term symbol:  1 (1) B2                                    R^2 =  2.81110e-08
  Excitation energy:                                               2.546533 eV
  Excited state 2 (singlet, B2)                                    [converged]
  Term symbol:  2 (1) B2                                    R^2 =  1.08636e-08
  Excitation energy:                                               3.174256 eV
  Excited state 3 (singlet, B2)                                    [converged]
  Term symbol:  3 (1) B2                                    R^2 =  2.79882e-08
  Excitation energy:                                               5.062804 eV
  Excited state 4 (singlet, B2)                                    [converged]
  Term symbol:  4 (1) B2                                    R^2 =  4.13912e-08
  Excitation energy:                                               6.490527 eV
  Excited state 5 (singlet, B2)                                    [converged]
  Term symbol:  5 (1) B2                                    R^2 =  8.73843e-08
  Excitation energy:                                               7.985809 eV
  Excited state 6 (singlet, B2)                                    [converged]
  Term symbol:  6 (1) B2                                    R^2 =  4.43140e-07
  Excitation energy:                                               9.616153 eV
  Excited state 7 (singlet, B2)                                    [converged]
  Term symbol:  7 (1) B2                                    R^2 =  8.85127e-07
  Excitation energy:                                               9.839577 eV
  Excited state 8 (singlet, B2)                                    [converged]
  Term symbol:  8 (1) B2                                    R^2 =  8.23786e-07
  Excitation energy:                                              10.368021 eV
  Excited state 9 (singlet, B2)                                    [converged]
  Term symbol:  9 (1) B2                                    R^2 =  4.27476e-07
  Excitation energy:                                              11.093885 eV
  Excited state 10 (singlet, B2)                                    [converged]
  Term symbol:  10 (1) B2                                   R^2 =  3.93432e-06
  Excitation energy:                                              11.354503 eV

             Orbital Energies (a.u.) and Symmetries
 --------------------------------------------------------------

 Alpha MOs, Restricted
 -- Occupied --
-11.069 -11.064  -0.877  -0.614  -0.496  -0.399  -0.347  -0.213
  1 A1    2 A1    3 A1    4 A1    1 B1    5 A1    2 B1    1 B2
 -0.025
  6 A1

 Beta MOs, Restricted
 -- Occupied --
-11.069 -11.064  -0.877  -0.614  -0.496  -0.399  -0.347  -0.213
  1 A1    2 A1    3 A1    4 A1    1 B1    5 A1    2 B1    1 B2
 -0.025
  6 A1

          Ground-State Mulliken Net Atomic Charges

     Atom                 Charge (a.u.)
  ----------------------------------------
      1 C                    -1.340045
      2 C                     0.162908
      3 H                     0.069476
      4 H                     0.186509
      5 H                     0.069476
      6 H                     0.186509
      7 H                    -0.334833
  ----------------------------------------
  Sum of atomic charges =    -1.000000

                    Cartesian Multipole Moments
 -----------------------------------------------------------------
    Charge (ESU x 10^10)
                -4.8032
    Dipole Moment (Debye)
         X       0.0000      Y       0.0000      Z      11.8348
       Tot      11.8348
    Quadrupole Moments (Debye-Ang)
        XX     -18.5437     XY      -0.0000     YY     -22.9424
        XZ      -0.0000     YZ      -0.0000     ZZ     -58.2185

 Total job time:  116.28s(wall), 156.22s(cpu)
        *  Thank you very much for using Q-Chem.  Have a nice day.  *
