 Q-Chem 5.4 (devel), Q-Chem, Inc., Pleasanton, CA (2021)
 Q-Chem 5.4.1 for Intel X86 EM64T Linux

User input:
--------------------------------------------------------------
$molecule
   0 1
   N   0.0  0.0 -0.54875676501
   N   0.0  0.0  0.54875676501
   Gh  0.0  0.0  0.0
$end

$rem
   COMPLEX_CCMAN   1
   METHOD          EOM-CCSD
   BASIS           gen
   EA_STATES       [5]
   threads 10
$end

$complex_ccman
   PROJ_CAP        3      Project CAP onto set of real EOM eigenvectors
   !PROJ_PROP      1      Request first-order perturbative correction for each point
   CAP_ETA         50
   ETA_STEP        50
   NSTEPS          100
   CAP_X           2760
   CAP_Y           2760
   CAP_Z           4880
   CAP_TYPE        1
$end

$basis
N    0
aug-cc-pvtz
****
Gh   0
S    1    1.000000
   2.88000000E-02    1.00000000E+00
S    1    1.000000
   1.44000000E-02    1.00000000E+00
S    1    1.000000
   0.72000000E-02    1.00000000E+00
P    1    1.000000
   2.45000000E-02    1.00000000E+00
P    1    1.000000
   1.22000000E-02    1.00000000E+00
P    1    1.000000
   0.61000000E-02    1.00000000E+00
D    1    1.000000
   0.755000000E-01   1.00000000E+00
D    1    1.000000
   0.377500000E-01   1.00000000E+00
D    1    1.000000
   0.188750000E-01   1.00000000E+00
****
$end
--------------------------------------------------------------

             Standard Nuclear Orientation (Angstroms)
    I     Atom           X                Y                Z
 ----------------------------------------------------------------
    1      N       0.0000000000     0.0000000000    -0.5487567650
    2      N       0.0000000000     0.0000000000     0.5487567650
    3      GH      0.0000000000     0.0000000000     0.0000000000
 ----------------------------------------------------------------

    9    -108.9848671806      3.38e-09  Convergence criterion met
 Total energy in the final basis set =     -108.9848671806
 CCSD total energy          = -109.36195496
        Solving for EOMEA-CCSD/MP2 A transitions.
 EOMEA transition 1/A
 Total energy = -109.35363778 a.u.  Excitation energy = 0.2263 eV.
 EOMEA transition 2/A
 Total energy = -109.35039973 a.u.  Excitation energy = 0.3144 eV.
 EOMEA transition 3/A
 Total energy = -109.35039696 a.u.  Excitation energy = 0.3145 eV.
 EOMEA transition 4/A
 Total energy = -109.35029409 a.u.  Excitation energy = 0.3173 eV.
 EOMEA transition 5/A
 Total energy = -109.32230641 a.u.  Excitation energy = 1.0789 eV.
 Excited state properties for  EOMEA-CCSD transition 1/A
 Excited state properties for  EOMEA-CCSD transition 2/A
 Excited state properties for  EOMEA-CCSD transition 3/A
 Excited state properties for  EOMEA-CCSD transition 4/A
 Excited state properties for  EOMEA-CCSD transition 5/A

                    Orbital Energies (a.u.)
 --------------------------------------------------------------

 Alpha MOs
 -- Occupied --
-15.6853 -15.6817  -1.4725  -0.7795  -0.6345  -0.6145  -0.6145

          Ground-State Mulliken Net Atomic Charges

     Atom                 Charge (a.u.)
  ----------------------------------------
      1 N                    -0.060864
      2 N                    -0.060864
      3 GH                    0.121728
  ----------------------------------------
  Sum of atomic charges =     0.000000

                    Cartesian Multipole Moments
 -----------------------------------------------------------------
    Charge (ESU x 10^10)
                -0.0000
    Dipole Moment (Debye)
         X      -0.0000      Y      -0.0000      Z      -0.0000
       Tot       0.0000
    Quadrupole Moments (Debye-Ang)
        XX     -10.3960     XY      -0.0000     YY     -10.3960
        XZ      -0.0000     YZ      -0.0000     ZZ     -11.6464

 Total job time:  53.34s(wall), 230.41s(cpu)
        *  Thank you very much for using Q-Chem.  Have a nice day.  *
