 Q-Chem 5.4 (devel), Q-Chem, Inc., Pleasanton, CA (2021)
 Q-Chem 5.4.1 for Intel X86 EM64T Linux

User input:
--------------------------------------------------------------
$comment
	Ethylene CAP-ADC(2)
	Basis: C: aDZ+4p1d, H: DZ
$end

$molecule
0 1
C       0.6645000000    -0.0000000000    -0.0000000000
C      -0.6645000000     0.0000000000     0.0000000000
H       1.1590799571     0.9623485159     0.0000000000
H       1.1590799571    -0.9623485159    -0.0000000000
H      -1.1590799571    -0.9623485159    -0.0000000000
H      -1.1590799571     0.9623485159     0.0000000000
$end

$rem
	basis gen
	method adc(2)
        EA_STATES [0,0,30,0,0,0,0,0]
	scf_convergence 8
	thresh 14
	adc_cap 1
	cap_type 2
	cap_x 1500
	cap_x_end 5000
	cap_x_step 500
	xc_grid 000250000974
	adc_print 3
	adc_davidson_conv 5
	adc_nguess_singles 100
	adc_nguess_doubles 50
	adc_davidson_maxsubspace 400
	adc_davidson_maxiter 40
	adc_davidson_thresh 14
	mem_total 95000
	threads 12
$end

$basis
H     0
S   4   1.00
      1.301000D+01           1.968500D-02
      1.962000D+00           1.379770D-01
      4.446000D-01           4.781480D-01
      1.220000D-01           5.012400D-01
S   1   1.00
      1.220000D-01           1.000000D+00
P   1   1.00
      7.270000D-01           1.0000000
****
C     0
S   9   1.00
      6.665000D+03           6.920000D-04
      1.000000D+03           5.329000D-03
      2.280000D+02           2.707700D-02
      6.471000D+01           1.017180D-01
      2.106000D+01           2.747400D-01
      7.495000D+00           4.485640D-01
      2.797000D+00           2.850740D-01
      5.215000D-01           1.520400D-02
      1.596000D-01          -3.191000D-03
S   9   1.00
      6.665000D+03          -1.460000D-04
      1.000000D+03          -1.154000D-03
      2.280000D+02          -5.725000D-03
      6.471000D+01          -2.331200D-02
      2.106000D+01          -6.395500D-02
      7.495000D+00          -1.499810D-01
      2.797000D+00          -1.272620D-01
      5.215000D-01           5.445290D-01
      1.596000D-01           5.804960D-01
S   1   1.00
      1.596000D-01           1.000000D+00
S   1   1.00
      0.0469000              1.0000000
P   4   1.00
      9.439000D+00           3.810900D-02
      2.002000D+00           2.094800D-01
      5.456000D-01           5.085570D-01
      1.517000D-01           4.688420D-01
P   1   1.00
      1.517000D-01           1.000000D+00
P   1   1.00
      0.0404100              1.0000000
P    1  1.00
     0.0269400   1.0
P    1  1.00
     0.0179600   1.0
P    1  1.00
     0.0119733   1.0
P    1  1.00
     0.0079822   1.0
D   1   1.00
      5.500000D-01           1.0000000
D   1   1.00
      0.1510000              1.0000000
D    1  1.00
     0.0755000   1.0
****
$end
--------------------------------------------------------------

             Standard Nuclear Orientation (Angstroms)
    I     Atom           X                Y                Z
 ----------------------------------------------------------------
    1      C       0.6645000000     0.0000000000    -0.0000000000
    2      C      -0.6645000000    -0.0000000000     0.0000000000
    3      H       1.1590799571     0.9623485159    -0.0000000000
    4      H       1.1590799571    -0.9623485159    -0.0000000000
    5      H      -1.1590799571    -0.9623485159     0.0000000000
    6      H      -1.1590799571     0.9623485159     0.0000000000
 ----------------------------------------------------------------

   10     -78.0387184660      2.14E-09 Convergence criterion met
 Total energy in the final basis set = -78.03871847
  Term symbol:  1 (2) B2g                                   R^2 =  2.02872e-11
  Term symbol:  2 (2) B2g                                   R^2 =  1.09764e-10
  Term symbol:  3 (2) B2g                                   R^2 =  3.26994e-10
  Term symbol:  4 (2) B2g                                   R^2 =  2.09004e-10
  Term symbol:  5 (2) B2g                                   R^2 =  5.56858e-11
  Term symbol:  6 (2) B2g                                   R^2 =  5.88994e-12
  Term symbol:  7 (2) B2g                                   R^2 =  1.55042e-11
  Term symbol:  8 (2) B2g                                   R^2 =  1.29225e-11
  Term symbol:  9 (2) B2g                                   R^2 =  4.60942e-13
  Term symbol:  10 (2) B2g                                  R^2 =  5.45284e-13
  Term symbol:  11 (2) B2g                                  R^2 =  6.72734e-13
  Term symbol:  12 (2) B2g                                  R^2 =  8.21189e-13
  Term symbol:  13 (2) B2g                                  R^2 =  4.27315e-12
  Term symbol:  14 (2) B2g                                  R^2 =  4.99046e-12
  Term symbol:  15 (2) B2g                                  R^2 =  3.15387e-12
  Term symbol:  16 (2) B2g                                  R^2 =  2.97588e-12
  Term symbol:  17 (2) B2g                                  R^2 =  1.94343e-12
  Term symbol:  18 (2) B2g                                  R^2 =  2.56948e-12
  Term symbol:  19 (2) B2g                                  R^2 =  1.65812e-12
  Term symbol:  20 (2) B2g                                  R^2 =  3.51274e-12
  Term symbol:  21 (2) B2g                                  R^2 =  7.91698e-12
  Term symbol:  22 (2) B2g                                  R^2 =  3.15961e-12
  Term symbol:  23 (2) B2g                                  R^2 =  4.88957e-13
  Term symbol:  24 (2) B2g                                  R^2 =  2.32744e-13
  Term symbol:  25 (2) B2g                                  R^2 =  1.40357e-10
  Term symbol:  26 (2) B2g                                  R^2 =  1.32023e-11
  Term symbol:  27 (2) B2g                                  R^2 =  4.39462e-11
  Term symbol:  28 (2) B2g                                  R^2 =  1.02055e-11
  Term symbol:  29 (2) B2g                                  R^2 =  1.19518e-10
  Term symbol:  30 (2) B2g                                  R^2 =  1.03518e-10
  Excitation energy:                                               0.764927 eV
  Excitation energy:                                               1.582390 eV
  Excitation energy:                                               0.817463 eV
  Excitation energy:                                               2.549810 eV
  Excitation energy:                                               1.784883 eV
  Excitation energy:                                               0.967420 eV
  Excitation energy:                                               4.681043 eV
  Excitation energy:                                               3.916115 eV
  Excitation energy:                                               3.098652 eV
  Excitation energy:                                               2.131233 eV
  Excitation energy:                                               0.799405 eV
  Excitation energy:                                               0.779223 eV
  Excitation energy:                                               0.779217 eV
  Excitation energy:                                               0.765711 eV
  Excitation energy:                                               0.765711 eV
  Excitation energy:                                               0.740888 eV
  Excitation energy:                                               0.740865 eV
  Excitation energy:                                               0.096826 eV
  Excitation energy:                                               0.096782 eV
  Excitation energy:                                               0.072781 eV
  Excitation energy:                                               0.072779 eV
  Excitation energy:                                              12.139960 eV
  Excitation energy:                                              11.375032 eV
  Excitation energy:                                              10.557570 eV
  Excitation energy:                                               9.590150 eV
  Excitation energy:                                               7.458917 eV
  Excitation energy:                                               3.812354 eV
  Excitation energy:                                               1.569503 eV
  Excitation energy:                                               1.569503 eV
  Excitation energy:                                               1.541189 eV
  Excitation energy:                                               1.541187 eV
  Excitation energy:                                               1.497297 eV
  Excitation energy:                                               1.497277 eV
  Excitation energy:                                               0.876572 eV
  Excitation energy:                                               0.876571 eV
  Excitation energy:                                               0.814875 eV
  Excitation energy:                                               0.814807 eV
  Excitation energy:                                               0.799459 eV
  Excitation energy:                                               0.799452 eV
  Excitation energy:                                               0.779271 eV
  Excitation energy:                                               0.779264 eV
  Excitation energy:                                               0.765758 eV
  Excitation energy:                                               0.765758 eV
  Excitation energy:                                               0.740935 eV
  Excitation energy:                                               0.740912 eV
  Excitation energy:                                               0.096874 eV
  Excitation energy:                                               0.096829 eV
  Excitation energy:                                               0.072828 eV
  Excitation energy:                                               0.072827 eV
  Excitation energy:                                               0.000047 eV

             Orbital Energies (a.u.) and Symmetries
 --------------------------------------------------------------

 Alpha MOs, Restricted
 -- Occupied --
-11.236 -11.235  -1.042  -0.782  -0.660  -0.567  -0.515  -0.377
  1 Ag    1 B3u   2 Ag    2 B3u   1 B2u   3 Ag    1 B1g   1 B1u

 Beta MOs, Restricted
 -- Occupied --
-11.236 -11.235  -1.042  -0.782  -0.660  -0.567  -0.515  -0.377
  1 Ag    1 B3u   2 Ag    2 B3u   1 B2u   3 Ag    1 B1g   1 B1u

          Ground-State Mulliken Net Atomic Charges

     Atom                 Charge (a.u.)
  ----------------------------------------
      1 C                    -0.077393
      2 C                    -0.077393
      3 H                     0.038697
      4 H                     0.038697
      5 H                     0.038697
      6 H                     0.038697
  ----------------------------------------
  Sum of atomic charges =     0.000000

                    Cartesian Multipole Moments
 -----------------------------------------------------------------
    Charge (ESU x 10^10)
                -0.0000
    Dipole Moment (Debye)
         X      -0.0000      Y       0.0000      Z      -0.0000
       Tot       0.0000
    Quadrupole Moments (Debye-Ang)
        XX     -12.9004     XY       0.0000     YY     -11.9748
        XZ      -0.0000     YZ       0.0000     ZZ     -16.1438

 Total job time:  214.21s(wall), 667.15s(cpu)
        *  Thank you very much for using Q-Chem.  Have a nice day.  *
